/global/u2/h/haihan/Research/BeH2/instability/ccECP_T_multi/single-ref/opt
  Input file(s): opt.xml 

=====================================================
                    QMCPACK 3.8.9

       (c) Copyright 2003-  QMCPACK developers

                    Please cite:
 J. Kim et al. J. Phys. Cond. Mat. 30 195901 (2018)
      https://doi.org/10.1088/1361-648X/aab9c3

  Git branch: HEAD
  Last git commit: a5c74d4327e4ba84c097fd904ce2b696bf2735ae-dirty
  Last git commit date: Tue Feb 11 10:57:26 2020 +0800
  Last git commit subject: Merge pull request #2299 from QMCPACK/rc_390
=====================================================
  Global options 

  Total number of MPI ranks = 1088
  Number of MPI groups      = 1
  MPI group ID              = 0
  Number of ranks in group  = 1088
  MPI ranks per node        = 68
  OMP 1st level threads     = 1
  OMP nested threading disabled or only 1 thread on the 2nd level

  Precision used in this calculation, see definitions in the manual:
  Base precision      = double
  Full precision      = double

  Structure-of-arrays (SoA) optimization enabled

  Input XML = opt.xml

  Project = opt
  date    = 2021-08-04 09:35:11 PDT
  host    = nid02517

 Random Number
 -------------
  Offset for the random number seeds based on time: 447

  Range of prime numbers to use as seeds over processors and threads = 3169-12911


 Particle Set 
 ------------
  Name: ion0
  All the species have the same mass 1
  Particle set size: 3

 Particle Set 
 ------------
  Name: e
  All the species have the same mass 1
  Particle set size: 4

 Wavefunction setup: 
 ------------------- 
  Name: psi0
  LCAO: SoaAtomicBasisSet<MultiQuintic,0>
Reading BasisSet from HDF5 file:hf.orbs.h5
<input node="atomicBasisSet" name="Gaussian" expandYlm="Gamess" angular="cartesian" elementType="Be" normalized="no" type="Numerical" expM="0" />
  AO BasisSet for Be
   Angular momentum expanded in cartesian functions x^lx y^ly z^lz according to Gamess
   Grid is created by the input paremters in h5
    Using log grid ri = 1e-06 rf = 100 npts = 1001
   R(n,l,m,s) 0 0 0 0
   R(n,l,m,s) 1 1 0 0
   R(n,l,m,s) 2 0 0 0
   R(n,l,m,s) 3 0 0 0
   R(n,l,m,s) 4 0 0 0
   R(n,l,m,s) 5 1 0 0
   R(n,l,m,s) 6 1 0 0
   R(n,l,m,s) 7 1 0 0
   R(n,l,m,s) 8 2 0 0
   R(n,l,m,s) 9 2 0 0
   R(n,l,m,s) 10 2 0 0
   R(n,l,m,s) 11 3 0 0
   R(n,l,m,s) 12 3 0 0
Expanding Ylm (angular function) according to Gamess using cartesian gaussians
Adding 1 cartesian gaussian orbitals for l= 0
Adding 3 cartesian gaussian orbitals for l= 1
Adding 1 cartesian gaussian orbitals for l= 0
Adding 1 cartesian gaussian orbitals for l= 0
Adding 1 cartesian gaussian orbitals for l= 0
Adding 3 cartesian gaussian orbitals for l= 1
Adding 3 cartesian gaussian orbitals for l= 1
Adding 3 cartesian gaussian orbitals for l= 1
Adding 6 cartesian gaussian orbitals for l= 2
Adding 6 cartesian gaussian orbitals for l= 2
Adding 6 cartesian gaussian orbitals for l= 2
Adding 10 cartesian gaussian orbitals for l= 3
Adding 10 cartesian gaussian orbitals for l= 3
  Setting cutoff radius 2.26969e+11

   Maximum Angular Momentum  = 3
   Number of Radial functors = 13
   Basis size                = 54

<input node="atomicBasisSet" name="Gaussian" expandYlm="Gamess" angular="cartesian" elementType="H" normalized="no" type="Numerical" expM="0" />
  AO BasisSet for H
   Angular momentum expanded in cartesian functions x^lx y^ly z^lz according to Gamess
   Grid is created by the input paremters in h5
    Using log grid ri = 1e-06 rf = 100 npts = 1001
   R(n,l,m,s) 0 0 0 0
   R(n,l,m,s) 1 0 0 0
   R(n,l,m,s) 2 0 0 0
   R(n,l,m,s) 3 0 0 0
   R(n,l,m,s) 4 1 0 0
   R(n,l,m,s) 5 1 0 0
   R(n,l,m,s) 6 1 0 0
   R(n,l,m,s) 7 2 0 0
   R(n,l,m,s) 8 2 0 0
Expanding Ylm (angular function) according to Gamess using cartesian gaussians
Adding 1 cartesian gaussian orbitals for l= 0
Adding 1 cartesian gaussian orbitals for l= 0
Adding 1 cartesian gaussian orbitals for l= 0
Adding 1 cartesian gaussian orbitals for l= 0
Adding 3 cartesian gaussian orbitals for l= 1
Adding 3 cartesian gaussian orbitals for l= 1
Adding 3 cartesian gaussian orbitals for l= 1
Adding 6 cartesian gaussian orbitals for l= 2
Adding 6 cartesian gaussian orbitals for l= 2
  Setting cutoff radius 1.28045e+08

   Maximum Angular Momentum  = 2
   Number of Radial functors = 9
   Basis size                = 25

  Created SPOSet builder named 'LCAOBSet' of type molecularorbital
Reuse SPOSetBuilder "LCAOBSet" type MolecularOrbital
  Building SPOSet '' with '' basis set.
Reuse SPOSetBuilder "LCAOBSet" type MolecularOrbital
  Building SPOSet '' with '' basis set.
  Creating a determinant updet group=0 sposet=updet
  Reusing a SPO set updet
  Using DiracDeterminant with DelayedUpdate engine
  Setting delay_rank by default!
  Using rank-1 Sherman-Morrison Fahy update

  Creating a determinant downdet group=1 sposet=downdet
  Reusing a SPO set downdet
  Using DiracDeterminant with DelayedUpdate engine
  Setting delay_rank by default!
  Using rank-1 Sherman-Morrison Fahy update

  Added a fermionic WaveFunctionComponent SlaterDet

   Jastrow
   -------
    Name: J2   Type: Two-Body   Function: Bspline

    Radial function for species: u - u
     Number of parameters: 10
     Cusp: -0.25
     Cutoff radius: 10

     Name                        Value Type Recompute Use Index
     ---- ---------------------------- ---- --------- --- -----
     uu_0                 0.000000e+00    1         1  ON     0
     uu_1                 0.000000e+00    1         1  ON     1
     uu_2                 0.000000e+00    1         1  ON     2
     uu_3                 0.000000e+00    1         1  ON     3
     uu_4                 0.000000e+00    1         1  ON     4
     uu_5                 0.000000e+00    1         1  ON     5
     uu_6                 0.000000e+00    1         1  ON     6
     uu_7                 0.000000e+00    1         1  ON     7
     uu_8                 0.000000e+00    1         1  ON     8
     uu_9                 0.000000e+00    1         1  ON     9

    Radial function for species: u - d
     Number of parameters: 10
     Cusp: -0.5
     Cutoff radius: 10

     Name                        Value Type Recompute Use Index
     ---- ---------------------------- ---- --------- --- -----
     ud_0                 0.000000e+00    1         1  ON     0
     ud_1                 0.000000e+00    1         1  ON     1
     ud_2                 0.000000e+00    1         1  ON     2
     ud_3                 0.000000e+00    1         1  ON     3
     ud_4                 0.000000e+00    1         1  ON     4
     ud_5                 0.000000e+00    1         1  ON     5
     ud_6                 0.000000e+00    1         1  ON     6
     ud_7                 0.000000e+00    1         1  ON     7
     ud_8                 0.000000e+00    1         1  ON     8
     ud_9                 0.000000e+00    1         1  ON     9


   Jastrow
   -------
    Name: J1   Type: One-Body   Function: Bspline

    Radial function for element: Be
     Number of parameters: 10
     Cusp: 0
     Cutoff radius: 10

      Name                        Value Type Recompute Use Index
     ----- ---------------------------- ---- --------- --- -----
     eBe_0                 0.000000e+00    1         1  ON     0
     eBe_1                 0.000000e+00    1         1  ON     1
     eBe_2                 0.000000e+00    1         1  ON     2
     eBe_3                 0.000000e+00    1         1  ON     3
     eBe_4                 0.000000e+00    1         1  ON     4
     eBe_5                 0.000000e+00    1         1  ON     5
     eBe_6                 0.000000e+00    1         1  ON     6
     eBe_7                 0.000000e+00    1         1  ON     7
     eBe_8                 0.000000e+00    1         1  ON     8
     eBe_9                 0.000000e+00    1         1  ON     9

    Radial function for element: H
     Number of parameters: 10
     Cusp: 0
     Cutoff radius: 10

     Name                        Value Type Recompute Use Index
     ---- ---------------------------- ---- --------- --- -----
     eH_0                 0.000000e+00    1         1  ON     0
     eH_1                 0.000000e+00    1         1  ON     1
     eH_2                 0.000000e+00    1         1  ON     2
     eH_3                 0.000000e+00    1         1  ON     3
     eH_4                 0.000000e+00    1         1  ON     4
     eH_5                 0.000000e+00    1         1  ON     5
     eH_6                 0.000000e+00    1         1  ON     6
     eH_7                 0.000000e+00    1         1  ON     7
     eH_8                 0.000000e+00    1         1  ON     8
     eH_9                 0.000000e+00    1         1  ON     9


   Jastrow
   -------
    Name: J3   Type: eeI   Function: polynomial

     Ion: Be   electron-electron: u - u
      Number of parameters for e-e: 3, for e-I: 3
      Cutoff radius: 5

Expected 26 parameters, but found 0 in PolynomialFunctor3D.
         Name                        Value Type Recompute Use Index
      ------- ---------------------------- ---- --------- --- -----
       uuBe_0                 0.000000e+00    1         1  ON     0
       uuBe_1                 0.000000e+00    1         1  ON     1
       uuBe_2                 0.000000e+00    1         1  ON     2
       uuBe_3                 0.000000e+00    1         1  ON     3
       uuBe_4                 0.000000e+00    1         1  ON     4
       uuBe_5                 0.000000e+00    1         1  ON     5
       uuBe_6                 0.000000e+00    1         1  ON     6
       uuBe_7                 0.000000e+00    1         1  ON     7
       uuBe_8                 0.000000e+00    1         1  ON     8
       uuBe_9                 0.000000e+00    1         1  ON     9
      uuBe_10                 0.000000e+00    1         1  ON    10
      uuBe_11                 0.000000e+00    1         1  ON    11
      uuBe_12                 0.000000e+00    1         1  ON    12
      uuBe_13                 0.000000e+00    1         1  ON    13
      uuBe_14                 0.000000e+00    1         1  ON    14
      uuBe_15                 0.000000e+00    1         1  ON    15
      uuBe_16                 0.000000e+00    1         1  ON    16
      uuBe_17                 0.000000e+00    1         1  ON    17
      uuBe_18                 0.000000e+00    1         1  ON    18
      uuBe_19                 0.000000e+00    1         1  ON    19
      uuBe_20                 0.000000e+00    1         1  ON    20
      uuBe_21                 0.000000e+00    1         1  ON    21
      uuBe_22                 0.000000e+00    1         1  ON    22
      uuBe_23                 0.000000e+00    1         1  ON    23
      uuBe_24                 0.000000e+00    1         1  ON    24
      uuBe_25                 0.000000e+00    1         1  ON    25

     Ion: Be   electron-electron: u - d
      Number of parameters for e-e: 3, for e-I: 3
      Cutoff radius: 5

Expected 26 parameters, but found 0 in PolynomialFunctor3D.
         Name                        Value Type Recompute Use Index
      ------- ---------------------------- ---- --------- --- -----
       udBe_0                 0.000000e+00    1         1  ON     0
       udBe_1                 0.000000e+00    1         1  ON     1
       udBe_2                 0.000000e+00    1         1  ON     2
       udBe_3                 0.000000e+00    1         1  ON     3
       udBe_4                 0.000000e+00    1         1  ON     4
       udBe_5                 0.000000e+00    1         1  ON     5
       udBe_6                 0.000000e+00    1         1  ON     6
       udBe_7                 0.000000e+00    1         1  ON     7
       udBe_8                 0.000000e+00    1         1  ON     8
       udBe_9                 0.000000e+00    1         1  ON     9
      udBe_10                 0.000000e+00    1         1  ON    10
      udBe_11                 0.000000e+00    1         1  ON    11
      udBe_12                 0.000000e+00    1         1  ON    12
      udBe_13                 0.000000e+00    1         1  ON    13
      udBe_14                 0.000000e+00    1         1  ON    14
      udBe_15                 0.000000e+00    1         1  ON    15
      udBe_16                 0.000000e+00    1         1  ON    16
      udBe_17                 0.000000e+00    1         1  ON    17
      udBe_18                 0.000000e+00    1         1  ON    18
      udBe_19                 0.000000e+00    1         1  ON    19
      udBe_20                 0.000000e+00    1         1  ON    20
      udBe_21                 0.000000e+00    1         1  ON    21
      udBe_22                 0.000000e+00    1         1  ON    22
      udBe_23                 0.000000e+00    1         1  ON    23
      udBe_24                 0.000000e+00    1         1  ON    24
      udBe_25                 0.000000e+00    1         1  ON    25

     Ion: H   electron-electron: u - u
      Number of parameters for e-e: 3, for e-I: 3
      Cutoff radius: 5

Expected 26 parameters, but found 0 in PolynomialFunctor3D.
        Name                        Value Type Recompute Use Index
      ------ ---------------------------- ---- --------- --- -----
       uuH_0                 0.000000e+00    1         1  ON     0
       uuH_1                 0.000000e+00    1         1  ON     1
       uuH_2                 0.000000e+00    1         1  ON     2
       uuH_3                 0.000000e+00    1         1  ON     3
       uuH_4                 0.000000e+00    1         1  ON     4
       uuH_5                 0.000000e+00    1         1  ON     5
       uuH_6                 0.000000e+00    1         1  ON     6
       uuH_7                 0.000000e+00    1         1  ON     7
       uuH_8                 0.000000e+00    1         1  ON     8
       uuH_9                 0.000000e+00    1         1  ON     9
      uuH_10                 0.000000e+00    1         1  ON    10
      uuH_11                 0.000000e+00    1         1  ON    11
      uuH_12                 0.000000e+00    1         1  ON    12
      uuH_13                 0.000000e+00    1         1  ON    13
      uuH_14                 0.000000e+00    1         1  ON    14
      uuH_15                 0.000000e+00    1         1  ON    15
      uuH_16                 0.000000e+00    1         1  ON    16
      uuH_17                 0.000000e+00    1         1  ON    17
      uuH_18                 0.000000e+00    1         1  ON    18
      uuH_19                 0.000000e+00    1         1  ON    19
      uuH_20                 0.000000e+00    1         1  ON    20
      uuH_21                 0.000000e+00    1         1  ON    21
      uuH_22                 0.000000e+00    1         1  ON    22
      uuH_23                 0.000000e+00    1         1  ON    23
      uuH_24                 0.000000e+00    1         1  ON    24
      uuH_25                 0.000000e+00    1         1  ON    25

     Ion: H   electron-electron: u - d
      Number of parameters for e-e: 3, for e-I: 3
      Cutoff radius: 5

Expected 26 parameters, but found 0 in PolynomialFunctor3D.
        Name                        Value Type Recompute Use Index
      ------ ---------------------------- ---- --------- --- -----
       udH_0                 0.000000e+00    1         1  ON     0
       udH_1                 0.000000e+00    1         1  ON     1
       udH_2                 0.000000e+00    1         1  ON     2
       udH_3                 0.000000e+00    1         1  ON     3
       udH_4                 0.000000e+00    1         1  ON     4
       udH_5                 0.000000e+00    1         1  ON     5
       udH_6                 0.000000e+00    1         1  ON     6
       udH_7                 0.000000e+00    1         1  ON     7
       udH_8                 0.000000e+00    1         1  ON     8
       udH_9                 0.000000e+00    1         1  ON     9
      udH_10                 0.000000e+00    1         1  ON    10
      udH_11                 0.000000e+00    1         1  ON    11
      udH_12                 0.000000e+00    1         1  ON    12
      udH_13                 0.000000e+00    1         1  ON    13
      udH_14                 0.000000e+00    1         1  ON    14
      udH_15                 0.000000e+00    1         1  ON    15
      udH_16                 0.000000e+00    1         1  ON    16
      udH_17                 0.000000e+00    1         1  ON    17
      udH_18                 0.000000e+00    1         1  ON    18
      udH_19                 0.000000e+00    1         1  ON    19
      udH_20                 0.000000e+00    1         1  ON    20
      udH_21                 0.000000e+00    1         1  ON    21
      udH_22                 0.000000e+00    1         1  ON    22
      udH_23                 0.000000e+00    1         1  ON    23
      udH_24                 0.000000e+00    1         1  ON    24
      udH_25                 0.000000e+00    1         1  ON    25

  QMCHamiltonian::addOperator Kinetic to H, physical Hamiltonian 
  QMCHamiltonian::addOperator ElecElec to H, physical Hamiltonian 
QMCHamiltonian::addOperatorType added type coulomb named ElecElec

  ECPotential builder for pseudopotential 

  Adding pseudopotential for Be
   Linear grid  ri=0 rf=10 npts = 10001
    ECPComponentBuilder::buildSemiLocalAndLocal 
    Assuming Hartree unit
   Number of angular momentum channels 2
   Maximum angular momentum channel 1
   Creating a Linear Grid Rmax=2.37
  Using global grid with delta = 0.001
   Making L=1 a local potential with a radial cutoff of 9.999
    Non-local pseudopotential parameters
    Maximum angular mementum = 0
    Number of non-local channels = 1
       l(0)=0
    Cutoff radius = 2.37
    Spherical grids and weights: 
                        1                 0                 0       0.08333333333
                       -1   1.224646799e-16                 0       0.08333333333
             0.4472135955       0.894427191                 0       0.08333333333
            -0.4472135955      0.7236067977      0.5257311121       0.08333333333
             0.4472135955      0.2763932023      0.8506508084       0.08333333333
            -0.4472135955     -0.2763932023      0.8506508084       0.08333333333
             0.4472135955     -0.7236067977      0.5257311121       0.08333333333
            -0.4472135955      -0.894427191   1.095357397e-16       0.08333333333
             0.4472135955     -0.7236067977     -0.5257311121       0.08333333333
            -0.4472135955     -0.2763932023     -0.8506508084       0.08333333333
             0.4472135955      0.2763932023     -0.8506508084       0.08333333333
            -0.4472135955      0.7236067977     -0.5257311121       0.08333333333
    Maximum cutoff radius 2.37

  Adding pseudopotential for H
   Linear grid  ri=0 rf=10 npts = 10001
    ECPComponentBuilder::buildSemiLocalAndLocal 
    Assuming Hartree unit
   Number of angular momentum channels 2
   Maximum angular momentum channel 1
   Creating a Linear Grid Rmax=1e-10
  Using global grid with delta = 0.001
   Making L=1 a local potential with a radial cutoff of 9.999
    Non-local pseudopotential parameters
    Maximum angular mementum = 0
    Number of non-local channels = 1
       l(0)=0
    Cutoff radius = 0.001
    Spherical grids and weights: 
                        1                 0                 0       0.08333333333
                       -1   1.224646799e-16                 0       0.08333333333
             0.4472135955       0.894427191                 0       0.08333333333
            -0.4472135955      0.7236067977      0.5257311121       0.08333333333
             0.4472135955      0.2763932023      0.8506508084       0.08333333333
            -0.4472135955     -0.2763932023      0.8506508084       0.08333333333
             0.4472135955     -0.7236067977      0.5257311121       0.08333333333
            -0.4472135955      -0.894427191   1.095357397e-16       0.08333333333
             0.4472135955     -0.7236067977     -0.5257311121       0.08333333333
            -0.4472135955     -0.2763932023     -0.8506508084       0.08333333333
             0.4472135955      0.2763932023     -0.8506508084       0.08333333333
            -0.4472135955      0.7236067977     -0.5257311121       0.08333333333
    Maximum cutoff radius 0.001
  QMCHamiltonian::addOperator LocalECP to H, physical Hamiltonian 

  Using NonLocalECP potential 
    Maximum grid on a sphere for NonLocalECPotential: 12
  QMCHamiltonian::addOperator NonLocalECP to H, physical Hamiltonian 
QMCHamiltonian::addOperatorType added type pseudo named ELEMENT-ECP
  QMCHamiltonian::addOperator IonIon to H, physical Hamiltonian 
QMCHamiltonian::addOperatorType added type coulomb named IonIon

  QMCHamiltonian::add2WalkerProperty added
    5 to P::PropertyList 
    0 to P::Collectables 
    starting Index of the observables in P::PropertyList = 9
<init source="ion0" target="e">
</init>
ParticleSetPool::randomize 1 ParticleSet.
<init source="ion0" target="e">
</init>
  Initialization Execution time = 2.619 secs
=========================================================
 Summary of QMC systems 
=========================================================
ParticleSetPool has: 

  ParticleSet 'e' contains 4 particles :  u(2) d(2)

    u -1.0765414324e-01  1.6787382071e-02  9.9667529176e-01
    u -9.9850686733e-01  7.4798884976e-02  2.4553267822e+00
    d  9.2096429891e-01  3.2927535654e-01 -2.2053427774e-01
    d -6.8164454676e-02 -5.4899351124e-01 -1.6703551768e+00

  Distance table for dissimilar particles (A-B):
    source: ion0  target: e
    Using structure-of-arrays (SoA) data layout
    Distance computations use open boundary conditions in 3D.

  Distance table for similar particles (A-A):
    source/target: e
    Using structure-of-arrays (SoA) data layout
    Distance computations use open boundary conditions in 3D.


  ParticleSet 'ion0' contains 3 particles :  Be(1) H(2)

    Be  0.0000000000e+00  0.0000000000e+00  0.0000000000e+00
    H  0.0000000000e+00  0.0000000000e+00  2.5065325501e+00
    H  0.0000000000e+00  0.0000000000e+00 -2.5065325501e+00

  Distance table for similar particles (A-A):
    source/target: ion0
    Using structure-of-arrays (SoA) data layout
    Distance computations use open boundary conditions in 3D.


  Hamiltonian h0
  Kinetic         Kinetic energy
  ElecElec        CoulombAB source=e

  LocalECP        LocalECPotential: ion0
  NonLocalECP     NonLocalECPotential: ion0
  IonIon          CoulombAA source/target ion0



=========================================================
  Start VMC
  File Root opt.s000 append = no 
=========================================================
Resetting walkers
  Adding 1 walkers to 0 existing sets
  Total number of walkers: 1.0880000000e+03
  Total weight: 1.0880000000e+03
  Resetting Properties of the walkers 1 x 14

<vmc function="put">
  qmc_counter=0  my_counter=0
  time step      = 1.0000000000e+00
  blocks         = 100
  steps          = 20
  substeps       = 2
  current        = 0
  target samples = 0.0000000000e+00
  walkers/mpi    = 1

  stepsbetweensamples = 2020
  SpinMoves      = no
<parameter name="blocks" condition="int">100</parameter>
<parameter name="blocks_between_recompute" condition="int">0</parameter>
<parameter name="check_properties" condition="int">100</parameter>
<parameter name="checkproperties" condition="int">100</parameter>
<parameter name="current" condition="int">0</parameter>
<parameter name="dmcwalkersperthread" condition="real">0.0000000000e+00</parameter>
<parameter name="maxcpusecs" condition="real">3.6000000000e+05</parameter>
<parameter name="record_configs" condition="int">0</parameter>
<parameter name="record_walkers" condition="int">2020</parameter>
<parameter name="recordconfigs" condition="int">0</parameter>
<parameter name="recordwalkers" condition="int">2020</parameter>
<parameter name="rewind" condition="int">0</parameter>
<parameter name="samples" condition="real">0.0000000000e+00</parameter>
<parameter name="samplesperthread" condition="real">0.0000000000e+00</parameter>
<parameter name="spinmass" condition="double">1.0000000000e+00</parameter>
<parameter name="spinmoves" condition="string">no</parameter>
<parameter name="steps" condition="int">20</parameter>
<parameter name="stepsbetweensamples" condition="int">2020</parameter>
<parameter name="store_configs" condition="int">0</parameter>
<parameter name="storeconfigs" condition="int">0</parameter>
<parameter name="sub_steps" condition="int">2</parameter>
<parameter name="substeps" condition="int">2</parameter>
<parameter name="tau" condition="au">1.0000000000e+00</parameter>
<parameter name="time_step" condition="au">1.0000000000e+00</parameter>
<parameter name="timestep" condition="au">1.0000000000e+00</parameter>
<parameter name="use_drift" condition="string">yes</parameter>
<parameter name="usedrift" condition="string">yes</parameter>
<parameter name="walkers" condition="int">1</parameter>
<parameter name="warmup_steps" condition="int">100</parameter>
<parameter name="warmupsteps" condition="int">100</parameter>
  DumpConfig==false Nothing (configurations, state) will be saved.
  Walker Samples are dumped every 2020 steps.
</vmc>
  Set drift_modifier UNR parameter a = 1.0000000000e+00
  Adding a default LocalEnergyEstimator for the MainEstimator 
  Initial partition of walkers 0 1 

  Using Particle by Particle moves
  Walker moves with drift
  Total Sample Size   =0
  Walker distribution on root = 0 1 
  Using Locality Approximation
===== Memory Usage after the buffer registration =====
Available memory on node 0, free + buffers : 88247 MB
Memory footprint by rank 0 on node 0       : 79 MB
==================================================
  Anonymous Buffer size per walker : 3872 Bytes.
MEMORY increase 0 MB VMC::resetRun
====================================================
  SimpleFixedNodeBranch::finalize after a VMC block
    QMC counter        = 0
    time step          = 1
    reference energy   = -2.17023
    reference variance = 0.210123
====================================================
  QMC Execution time = 3.1780e+00 secs
Loop execution max-interations = 10

=========================================================
  Start QMCFixedSampleLinearOptimize
  File Root opt.s001 append = no 
=========================================================
  Skip QMCDriver::putQMCInfo 
  Resetting Properties of the walkers 1 x 14

=========================================================
  Start VMC
  File Root opt.s001 append = no 
=========================================================
Resetting walkers
  Using the current 1 walkers.
  Total number of walkers: 1.0880e+03
  Total weight: 1.0880e+03
  Resetting Properties of the walkers 1 x 14

<vmc function="put">
  qmc_counter=0  my_counter=0
  time step      = 1.5000e+00
  blocks         = 100
  steps          = 20
  substeps       = 2
  current        = 0
  target samples = 3.2000e+05
  walkers/mpi    = 1

  stepsbetweensamples = 6
  SpinMoves      = no
<parameter name="blocks" condition="int">100</parameter>
<parameter name="blocks_between_recompute" condition="int">0</parameter>
<parameter name="check_properties" condition="int">100</parameter>
<parameter name="checkproperties" condition="int">100</parameter>
<parameter name="current" condition="int">0</parameter>
<parameter name="dmcwalkersperthread" condition="real">2.9500e+02</parameter>
<parameter name="maxcpusecs" condition="real">3.6000e+05</parameter>
<parameter name="record_configs" condition="int">0</parameter>
<parameter name="record_walkers" condition="int">6</parameter>
<parameter name="recordconfigs" condition="int">0</parameter>
<parameter name="recordwalkers" condition="int">6</parameter>
<parameter name="rewind" condition="int">0</parameter>
<parameter name="samples" condition="real">3.2000e+05</parameter>
<parameter name="samplesperthread" condition="real">2.9500e+02</parameter>
<parameter name="spinmass" condition="double">1.0000e+00</parameter>
<parameter name="spinmoves" condition="string">no</parameter>
<parameter name="steps" condition="int">20</parameter>
<parameter name="stepsbetweensamples" condition="int">6</parameter>
<parameter name="store_configs" condition="int">0</parameter>
<parameter name="storeconfigs" condition="int">0</parameter>
<parameter name="sub_steps" condition="int">2</parameter>
<parameter name="substeps" condition="int">2</parameter>
<parameter name="tau" condition="au">1.5000e+00</parameter>
<parameter name="time_step" condition="au">1.5000e+00</parameter>
<parameter name="timestep" condition="au">1.5000e+00</parameter>
<parameter name="use_drift" condition="string">yes</parameter>
<parameter name="usedrift" condition="string">yes</parameter>
<parameter name="walkers" condition="int">1</parameter>
<parameter name="warmup_steps" condition="int">0</parameter>
<parameter name="warmupsteps" condition="int">0</parameter>
  DumpConfig==false Nothing (configurations, state) will be saved.
  Walker Samples are dumped every 6 steps.
</vmc>
    Restarting, cummulative properties:
      energy     = -2.1702e+00
      variance   = 0.0000e+00
      r2accepted = 1.0000e-10
      r2proposed = 1.0000e-10
  Set drift_modifier UNR parameter a = 1.0000e+00
  Adding a default LocalEnergyEstimator for the MainEstimator 
 Using QMCCostFunction::QMCCostFunction
  Set drift_modifier UNR parameter a = 1.0000e+00
<optimization-report>
<vmc stage="main" blocks="100">
  Cannot make clones again. Use existing 1 clones
  Initial partition of walkers 0 1 

  Using Particle by Particle moves
  Walker moves with drift
  Total Sample Size   =320960
  Walker distribution on root = 0 1 
  Using Locality Approximation
===== Memory Usage after the buffer registration =====
Available memory on node 0, free + buffers : 88266 MB
Memory footprint by rank 0 on node 0       : 79 MB
==================================================
  Anonymous Buffer size per walker : 3872 Bytes.
MEMORY increase 0 MB VMC::resetRun
====================================================
  SimpleFixedNodeBranch::finalize after a VMC block
    QMC counter        = 1
    time step          = 1.5
    reference energy   = -2.15022
    reference variance = 0.238176
====================================================
  Execution time = 2.2179e+00
</vmc>
<opt stage="setup">
  <log>
   Reading configurations from h5FileRoot opt.s001
  QMCCostFunction is created with 1 threads.
  Using Nonlocal PP in Opt: no
   Number of samples loaded to each thread : 295 
  VMC Eavg = -2.1741e+00
  VMC Evar = 4.4535e-01
  Total weights = 3.2096e+05
  Execution time = 1.2495e-01
  </log>
</opt>
<opt stage="main" walkers="320960">
  <log>

*****************************************
Building overlap and Hamiltonian matrices
*****************************************

Among totally 144 optimized parameters, largest LM parameter change : 2.7893e-01 at parameter 10

******************************************************************************
Init Cost =   4.4535e-01    New Cost =   3.1062e-01  Delta Cost =  -1.3474e-01
******************************************************************************

The new set of parameters is valid. Updating the trial wave function!

*****************************************************************************
Applying the update for shift_i =   1.0000e-02     and shift_s =   2.5000e-01
*****************************************************************************
  Execution time = 2.9960e+00
  </log>
  <optVariables href="opt.s001.opt.xml">
   uu_0                 9.494770e-03 1 1  ON 0
   uu_1                 4.697437e-02 1 1  ON 1
   uu_2                 4.179897e-02 1 1  ON 2
   uu_3                -9.276007e-03 1 1  ON 3
   uu_4                -2.930938e-02 1 1  ON 4
   uu_5                -3.470106e-02 1 1  ON 5
   uu_6                -3.274617e-02 1 1  ON 6
   uu_7                -2.537380e-02 1 1  ON 7
   uu_8                -1.509199e-02 1 1  ON 8
   uu_9                -1.278665e-03 1 1  ON 9
   ud_0                 2.789297e-01 1 1  ON 10
   ud_1                 1.871698e-01 1 1  ON 11
   ud_2                 6.706792e-02 1 1  ON 12
   ud_3                -2.111604e-02 1 1  ON 13
   ud_4                -6.541403e-02 1 1  ON 14
   ud_5                -7.970133e-02 1 1  ON 15
   ud_6                -8.563639e-02 1 1  ON 16
   ud_7                -8.318315e-02 1 1  ON 17
   ud_8                -7.309808e-02 1 1  ON 18
   ud_9                -5.601156e-02 1 1  ON 19
  eBe_0                -8.396107e-02 1 1  ON 20
  eBe_1                -7.280868e-02 1 1  ON 21
  eBe_2                -3.112241e-02 1 1  ON 22
  eBe_3                 1.221333e-02 1 1  ON 23
  eBe_4                 4.269893e-02 1 1  ON 24
  eBe_5                 4.975394e-02 1 1  ON 25
  eBe_6                 4.232934e-02 1 1  ON 26
  eBe_7                 1.755011e-02 1 1  ON 27
  eBe_8                 1.200861e-02 1 1  ON 28
  eBe_9                 6.975608e-03 1 1  ON 29
   eH_0                -1.498059e-01 1 1  ON 30
   eH_1                -1.105460e-01 1 1  ON 31
   eH_2                -1.474171e-02 1 1  ON 32
   eH_3                 5.464763e-03 1 1  ON 33
   eH_4                 5.223064e-02 1 1  ON 34
   eH_5                 5.522228e-02 1 1  ON 35
   eH_6                 4.607606e-02 1 1  ON 36
   eH_7                 4.430746e-02 1 1  ON 37
   eH_8                 3.204202e-02 1 1  ON 38
   eH_9                 1.674870e-02 1 1  ON 39
 uuBe_0                -5.831449e-03 1 1  ON 40
 uuBe_1                -3.442835e-03 1 1  ON 41
 uuBe_2                -7.179932e-03 1 1  ON 42
 uuBe_3                 1.052069e-02 1 1  ON 43
 uuBe_4                 1.599140e-03 1 1  ON 44
 uuBe_5                -6.923880e-04 1 1  ON 45
 uuBe_6                 4.909500e-03 1 1  ON 46
 uuBe_7                 1.867546e-03 1 1  ON 47
 uuBe_8                -1.143163e-03 1 1  ON 48
 uuBe_9                 1.970803e-03 1 1  ON 49
uuBe_10                -8.744209e-04 1 1  ON 50
uuBe_11                -4.580045e-04 1 1  ON 51
uuBe_12                 1.150630e-03 1 1  ON 52
uuBe_13                 5.976120e-04 1 1  ON 53
uuBe_14                -4.566611e-04 1 1  ON 54
uuBe_15                 1.122935e-04 1 1  ON 55
uuBe_16                 3.712038e-03 1 1  ON 56
uuBe_17                 4.641420e-03 1 1  ON 57
uuBe_18                 3.540906e-04 1 1  ON 58
uuBe_19                -7.934576e-04 1 1  ON 59
uuBe_20                 1.164211e-03 1 1  ON 60
uuBe_21                 9.754152e-04 1 1  ON 61
uuBe_22                -4.190314e-04 1 1  ON 62
uuBe_23                -4.473152e-03 1 1  ON 63
uuBe_24                -2.727100e-04 1 1  ON 64
uuBe_25                 2.831291e-04 1 1  ON 65
 udBe_0                -6.950553e-03 1 1  ON 66
 udBe_1                -2.359673e-03 1 1  ON 67
 udBe_2                -2.704076e-03 1 1  ON 68
 udBe_3                 3.674472e-03 1 1  ON 69
 udBe_4                -6.064033e-03 1 1  ON 70
 udBe_5                 7.228216e-04 1 1  ON 71
 udBe_6                 1.369070e-03 1 1  ON 72
 udBe_7                 9.192519e-03 1 1  ON 73
 udBe_8                -3.373288e-03 1 1  ON 74
 udBe_9                 3.224285e-03 1 1  ON 75
udBe_10                -4.976361e-03 1 1  ON 76
udBe_11                 4.675587e-03 1 1  ON 77
udBe_12                -2.782258e-03 1 1  ON 78
udBe_13                -3.321893e-03 1 1  ON 79
udBe_14                 4.133483e-03 1 1  ON 80
udBe_15                -1.034342e-03 1 1  ON 81
udBe_16                 4.689412e-03 1 1  ON 82
udBe_17                 1.127111e-03 1 1  ON 83
udBe_18                -2.538896e-03 1 1  ON 84
udBe_19                -2.888393e-03 1 1  ON 85
udBe_20                -3.966128e-03 1 1  ON 86
udBe_21                 1.181870e-04 1 1  ON 87
udBe_22                 2.804044e-03 1 1  ON 88
udBe_23                 5.601768e-03 1 1  ON 89
udBe_24                -2.829578e-03 1 1  ON 90
udBe_25                -8.652814e-04 1 1  ON 91
  uuH_0                -1.033365e-03 1 1  ON 92
  uuH_1                 2.475085e-03 1 1  ON 93
  uuH_2                -5.933262e-03 1 1  ON 94
  uuH_3                 3.427158e-03 1 1  ON 95
  uuH_4                 5.173537e-03 1 1  ON 96
  uuH_5                 6.104388e-04 1 1  ON 97
  uuH_6                -1.005490e-03 1 1  ON 98
  uuH_7                 1.466896e-03 1 1  ON 99
  uuH_8                 5.833187e-03 1 1  ON 100
  uuH_9                -2.854551e-03 1 1  ON 101
 uuH_10                 2.062145e-03 1 1  ON 102
 uuH_11                 3.285948e-03 1 1  ON 103
 uuH_12                -1.137800e-02 1 1  ON 104
 uuH_13                -3.019147e-03 1 1  ON 105
 uuH_14                -7.265323e-03 1 1  ON 106
 uuH_15                 7.373986e-03 1 1  ON 107
 uuH_16                 9.360166e-04 1 1  ON 108
 uuH_17                 2.794596e-03 1 1  ON 109
 uuH_18                 2.508478e-03 1 1  ON 110
 uuH_19                -7.635727e-03 1 1  ON 111
 uuH_20                 4.809695e-03 1 1  ON 112
 uuH_21                 8.448650e-03 1 1  ON 113
 uuH_22                -1.120704e-04 1 1  ON 114
 uuH_23                 4.193963e-03 1 1  ON 115
 uuH_24                -7.220485e-04 1 1  ON 116
 uuH_25                 7.192095e-04 1 1  ON 117
  udH_0                -1.593003e-03 1 1  ON 118
  udH_1                -1.368897e-03 1 1  ON 119
  udH_2                -2.033269e-04 1 1  ON 120
  udH_3                 3.249296e-03 1 1  ON 121
  udH_4                 1.213367e-03 1 1  ON 122
  udH_5                 1.326925e-03 1 1  ON 123
  udH_6                -2.119871e-03 1 1  ON 124
  udH_7                -6.383649e-03 1 1  ON 125
  udH_8                 5.476052e-03 1 1  ON 126
  udH_9                 3.459258e-03 1 1  ON 127
 udH_10                 4.146998e-03 1 1  ON 128
 udH_11                -3.338641e-03 1 1  ON 129
 udH_12                -7.129931e-03 1 1  ON 130
 udH_13                -1.543323e-03 1 1  ON 131
 udH_14                 7.911036e-03 1 1  ON 132
 udH_15                -3.132024e-04 1 1  ON 133
 udH_16                -2.236299e-03 1 1  ON 134
 udH_17                 5.535813e-03 1 1  ON 135
 udH_18                -7.541544e-04 1 1  ON 136
 udH_19                 9.023332e-03 1 1  ON 137
 udH_20                -1.889863e-03 1 1  ON 138
 udH_21                -5.202645e-03 1 1  ON 139
 udH_22                 3.490247e-04 1 1  ON 140
 udH_23                 6.097376e-03 1 1  ON 141
 udH_24                 5.035814e-04 1 1  ON 142
 udH_25                -7.829575e-04 1 1  ON 143
  </optVariables>
   Restore the number of walkers to 1, removing 0 walkers.
</opt>
</optimization-report>
  QMC Execution time = 3.023 secs

=========================================================
  Start QMCFixedSampleLinearOptimize
  File Root opt.s002 append = no 
=========================================================
  Skip QMCDriver::putQMCInfo 
  Resetting Properties of the walkers 1 x 14

=========================================================
  Start VMC
  File Root opt.s002 append = no 
=========================================================
Using existing walkers 
  Resetting Properties of the walkers 1 x 14

<vmc function="put">
  qmc_counter=1  my_counter=0
  time step      = 1.5
  blocks         = 100
  steps          = 20
  substeps       = 2
  current        = 0
  target samples = 3.2e+05
  walkers/mpi    = 1

  stepsbetweensamples = 6
  SpinMoves      = no
<parameter name="blocks" condition="int">100</parameter>
<parameter name="blocks_between_recompute" condition="int">0</parameter>
<parameter name="check_properties" condition="int">100</parameter>
<parameter name="checkproperties" condition="int">100</parameter>
<parameter name="current" condition="int">0</parameter>
<parameter name="dmcwalkersperthread" condition="real">295</parameter>
<parameter name="maxcpusecs" condition="real">3.6e+05</parameter>
<parameter name="record_configs" condition="int">0</parameter>
<parameter name="record_walkers" condition="int">6</parameter>
<parameter name="recordconfigs" condition="int">0</parameter>
<parameter name="recordwalkers" condition="int">6</parameter>
<parameter name="rewind" condition="int">0</parameter>
<parameter name="samples" condition="real">3.2e+05</parameter>
<parameter name="samplesperthread" condition="real">295</parameter>
<parameter name="spinmass" condition="double">1</parameter>
<parameter name="spinmoves" condition="string">no</parameter>
<parameter name="steps" condition="int">20</parameter>
<parameter name="stepsbetweensamples" condition="int">6</parameter>
<parameter name="store_configs" condition="int">0</parameter>
<parameter name="storeconfigs" condition="int">0</parameter>
<parameter name="sub_steps" condition="int">2</parameter>
<parameter name="substeps" condition="int">2</parameter>
<parameter name="tau" condition="au">1.5</parameter>
<parameter name="time_step" condition="au">1.5</parameter>
<parameter name="timestep" condition="au">1.5</parameter>
<parameter name="use_drift" condition="string">yes</parameter>
<parameter name="usedrift" condition="string">yes</parameter>
<parameter name="walkers" condition="int">1</parameter>
<parameter name="warmup_steps" condition="int">0</parameter>
<parameter name="warmupsteps" condition="int">0</parameter>
  DumpConfig==false Nothing (configurations, state) will be saved.
  Walker Samples are dumped every 6 steps.
</vmc>
    Restarting, cummulative properties:
      energy     = -2.16
      variance   = 0
      r2accepted = 1e-10
      r2proposed = 1e-10
  Set drift_modifier UNR parameter a = 1
  Adding a default LocalEnergyEstimator for the MainEstimator 
 Using QMCCostFunction::QMCCostFunction
  Set drift_modifier UNR parameter a = 1.0000e+00
<optimization-report>
<vmc stage="main" blocks="100">
  Cannot make clones again. Use existing 1 clones
  Initial partition of walkers 0 1 

  Using Particle by Particle moves
  Walker moves with drift
  Total Sample Size   =320960
  Walker distribution on root = 0 1 
  Using Locality Approximation
===== Memory Usage after the buffer registration =====
Available memory on node 0, free + buffers : 86219 MB
Memory footprint by rank 0 on node 0       : 100 MB
==================================================
  Anonymous Buffer size per walker : 3872 Bytes.
MEMORY increase 0 MB VMC::resetRun
====================================================
  SimpleFixedNodeBranch::finalize after a VMC block
    QMC counter        = 2
    time step          = 1.5
    reference energy   = -2.2321
    reference variance = 0.036779
====================================================
  Execution time = 1.9844e+00
</vmc>
<opt stage="setup">
  <log>
   Reading configurations from h5FileRoot opt.s002
  QMCCostFunction is created with 1 threads.
  Using Nonlocal PP in Opt: no
   Number of samples loaded to each thread : 295 
  VMC Eavg = -2.2338e+00
  VMC Evar = 2.1067e-01
  Total weights = 3.2096e+05
  Execution time = 1.2423e-01
  </log>
</opt>
<opt stage="main" walkers="320960">
  <log>

*****************************************
Building overlap and Hamiltonian matrices
*****************************************

Among totally 144 optimized parameters, largest LM parameter change : 2.1322e-01 at parameter 10

******************************************************************************
Init Cost =   2.1067e-01    New Cost =   1.9320e-01  Delta Cost =  -1.7470e-02
******************************************************************************

The new set of parameters is valid. Updating the trial wave function!

*****************************************************************************
Applying the update for shift_i =   1.0000e-02     and shift_s =   6.2500e-02
*****************************************************************************
  Execution time = 2.4437e+00
  </log>
  <optVariables href="opt.s002.opt.xml">
   uu_0                 1.941474e-02 1 1  ON 0
   uu_1                 8.894216e-02 1 1  ON 1
   uu_2                 5.921758e-02 1 1  ON 2
   uu_3                -2.218592e-02 1 1  ON 3
   uu_4                -5.411914e-02 1 1  ON 4
   uu_5                -6.541370e-02 1 1  ON 5
   uu_6                -6.164202e-02 1 1  ON 6
   uu_7                -4.879574e-02 1 1  ON 7
   uu_8                -2.911438e-02 1 1  ON 8
   uu_9                -2.447258e-03 1 1  ON 9
   ud_0                 4.921459e-01 1 1  ON 10
   ud_1                 3.281257e-01 1 1  ON 11
   ud_2                 1.369035e-01 1 1  ON 12
   ud_3                -9.611163e-03 1 1  ON 13
   ud_4                -1.003579e-01 1 1  ON 14
   ud_5                -1.389813e-01 1 1  ON 15
   ud_6                -1.576017e-01 1 1  ON 16
   ud_7                -1.587601e-01 1 1  ON 17
   ud_8                -1.379712e-01 1 1  ON 18
   ud_9                -1.059208e-01 1 1  ON 19
  eBe_0                -1.672515e-01 1 1  ON 20
  eBe_1                -1.240325e-01 1 1  ON 21
  eBe_2                -5.821306e-02 1 1  ON 22
  eBe_3                 1.334743e-02 1 1  ON 23
  eBe_4                 7.359842e-02 1 1  ON 24
  eBe_5                 9.721125e-02 1 1  ON 25
  eBe_6                 8.197033e-02 1 1  ON 26
  eBe_7                 3.647616e-02 1 1  ON 27
  eBe_8                 2.767773e-02 1 1  ON 28
  eBe_9                 1.355886e-02 1 1  ON 29
   eH_0                -2.542806e-01 1 1  ON 30
   eH_1                -1.977369e-01 1 1  ON 31
   eH_2                -5.227893e-02 1 1  ON 32
   eH_3                 3.096797e-03 1 1  ON 33
   eH_4                 8.072823e-02 1 1  ON 34
   eH_5                 1.008638e-01 1 1  ON 35
   eH_6                 9.232165e-02 1 1  ON 36
   eH_7                 8.163585e-02 1 1  ON 37
   eH_8                 6.313818e-02 1 1  ON 38
   eH_9                 3.227191e-02 1 1  ON 39
 uuBe_0                -7.156797e-03 1 1  ON 40
 uuBe_1                 1.414554e-03 1 1  ON 41
 uuBe_2                -1.050671e-02 1 1  ON 42
 uuBe_3                 1.667072e-02 1 1  ON 43
 uuBe_4                 5.586311e-03 1 1  ON 44
 uuBe_5                 1.176235e-03 1 1  ON 45
 uuBe_6                 1.146503e-02 1 1  ON 46
 uuBe_7                 6.312256e-03 1 1  ON 47
 uuBe_8                -7.132531e-03 1 1  ON 48
 uuBe_9                -4.993223e-03 1 1  ON 49
uuBe_10                 4.650387e-03 1 1  ON 50
uuBe_11                -4.216443e-04 1 1  ON 51
uuBe_12                 1.720987e-03 1 1  ON 52
uuBe_13                -7.088469e-03 1 1  ON 53
uuBe_14                 3.525667e-03 1 1  ON 54
uuBe_15                -6.582588e-04 1 1  ON 55
uuBe_16                 4.456731e-03 1 1  ON 56
uuBe_17                 8.287107e-03 1 1  ON 57
uuBe_18                -2.230123e-03 1 1  ON 58
uuBe_19                 2.052897e-04 1 1  ON 59
uuBe_20                 3.046216e-03 1 1  ON 60
uuBe_21                -3.446043e-03 1 1  ON 61
uuBe_22                 7.650523e-04 1 1  ON 62
uuBe_23                -9.312535e-04 1 1  ON 63
uuBe_24                 1.479448e-03 1 1  ON 64
uuBe_25                -4.005148e-04 1 1  ON 65
 udBe_0                -1.076505e-02 1 1  ON 66
 udBe_1                -7.346459e-04 1 1  ON 67
 udBe_2                -1.145044e-02 1 1  ON 68
 udBe_3                 6.848480e-03 1 1  ON 69
 udBe_4                -6.801928e-03 1 1  ON 70
 udBe_5                -5.492924e-04 1 1  ON 71
 udBe_6                 8.431152e-03 1 1  ON 72
 udBe_7                 1.575439e-02 1 1  ON 73
 udBe_8                -8.174528e-03 1 1  ON 74
 udBe_9                 6.691871e-03 1 1  ON 75
udBe_10                -9.740702e-03 1 1  ON 76
udBe_11                 6.922201e-03 1 1  ON 77
udBe_12                -3.677559e-03 1 1  ON 78
udBe_13                -9.756102e-03 1 1  ON 79
udBe_14                 9.750555e-03 1 1  ON 80
udBe_15                -2.299685e-03 1 1  ON 81
udBe_16                 9.913449e-03 1 1  ON 82
udBe_17                 4.231345e-03 1 1  ON 83
udBe_18                -2.914617e-03 1 1  ON 84
udBe_19                -2.528556e-03 1 1  ON 85
udBe_20                -5.364194e-03 1 1  ON 86
udBe_21                -2.300291e-03 1 1  ON 87
udBe_22                 3.809625e-03 1 1  ON 88
udBe_23                 7.683009e-03 1 1  ON 89
udBe_24                -2.974851e-03 1 1  ON 90
udBe_25                -1.102453e-03 1 1  ON 91
  uuH_0                -3.577525e-03 1 1  ON 92
  uuH_1                 8.674430e-03 1 1  ON 93
  uuH_2                -5.140294e-03 1 1  ON 94
  uuH_3                 5.666216e-03 1 1  ON 95
  uuH_4                 7.053536e-03 1 1  ON 96
  uuH_5                 9.973727e-04 1 1  ON 97
  uuH_6                -4.892757e-03 1 1  ON 98
  uuH_7                 9.569187e-04 1 1  ON 99
  uuH_8                 9.166686e-03 1 1  ON 100
  uuH_9                -2.471016e-03 1 1  ON 101
 uuH_10                 2.528291e-03 1 1  ON 102
 uuH_11                 6.068557e-03 1 1  ON 103
 uuH_12                -1.029824e-02 1 1  ON 104
 uuH_13                -7.549246e-03 1 1  ON 105
 uuH_14                -9.293912e-03 1 1  ON 106
 uuH_15                 7.509353e-03 1 1  ON 107
 uuH_16                 2.442218e-03 1 1  ON 108
 uuH_17                 6.287615e-03 1 1  ON 109
 uuH_18                 4.866329e-03 1 1  ON 110
 uuH_19                -1.014711e-02 1 1  ON 111
 uuH_20                 1.143170e-03 1 1  ON 112
 uuH_21                 1.287879e-02 1 1  ON 113
 uuH_22                -3.621762e-03 1 1  ON 114
 uuH_23                -1.462902e-03 1 1  ON 115
 uuH_24                 2.785213e-03 1 1  ON 116
 uuH_25                 2.455634e-03 1 1  ON 117
  udH_0                -3.696975e-03 1 1  ON 118
  udH_1                -1.497649e-03 1 1  ON 119
  udH_2                 5.798971e-03 1 1  ON 120
  udH_3                 3.407202e-03 1 1  ON 121
  udH_4                -2.568285e-04 1 1  ON 122
  udH_5                 1.703469e-03 1 1  ON 123
  udH_6                -4.664912e-04 1 1  ON 124
  udH_7                -1.197507e-02 1 1  ON 125
  udH_8                 1.560592e-02 1 1  ON 126
  udH_9                 5.105348e-03 1 1  ON 127
 udH_10                 5.080246e-03 1 1  ON 128
 udH_11                -5.674703e-03 1 1  ON 129
 udH_12                -1.391889e-02 1 1  ON 130
 udH_13                -1.478779e-03 1 1  ON 131
 udH_14                 1.066148e-02 1 1  ON 132
 udH_15                 6.584581e-04 1 1  ON 133
 udH_16                -6.709960e-03 1 1  ON 134
 udH_17                 8.248204e-03 1 1  ON 135
 udH_18                 4.452063e-04 1 1  ON 136
 udH_19                 1.485816e-02 1 1  ON 137
 udH_20                -8.921025e-04 1 1  ON 138
 udH_21                -6.450337e-03 1 1  ON 139
 udH_22                -6.728643e-04 1 1  ON 140
 udH_23                 6.232752e-03 1 1  ON 141
 udH_24                 8.734181e-04 1 1  ON 142
 udH_25                -6.472819e-04 1 1  ON 143
  </optVariables>
   Restore the number of walkers to 1, removing 0 walkers.
</opt>
</optimization-report>
  QMC Execution time = 2.5 secs

=========================================================
  Start QMCFixedSampleLinearOptimize
  File Root opt.s003 append = no 
=========================================================
  Skip QMCDriver::putQMCInfo 
  Resetting Properties of the walkers 1 x 14

=========================================================
  Start VMC
  File Root opt.s003 append = no 
=========================================================
Using existing walkers 
  Resetting Properties of the walkers 1 x 14

<vmc function="put">
  qmc_counter=2  my_counter=0
  time step      = 1.5
  blocks         = 100
  steps          = 20
  substeps       = 2
  current        = 0
  target samples = 3.2e+05
  walkers/mpi    = 1

  stepsbetweensamples = 6
  SpinMoves      = no
<parameter name="blocks" condition="int">100</parameter>
<parameter name="blocks_between_recompute" condition="int">0</parameter>
<parameter name="check_properties" condition="int">100</parameter>
<parameter name="checkproperties" condition="int">100</parameter>
<parameter name="current" condition="int">0</parameter>
<parameter name="dmcwalkersperthread" condition="real">295</parameter>
<parameter name="maxcpusecs" condition="real">3.6e+05</parameter>
<parameter name="record_configs" condition="int">0</parameter>
<parameter name="record_walkers" condition="int">6</parameter>
<parameter name="recordconfigs" condition="int">0</parameter>
<parameter name="recordwalkers" condition="int">6</parameter>
<parameter name="rewind" condition="int">0</parameter>
<parameter name="samples" condition="real">3.2e+05</parameter>
<parameter name="samplesperthread" condition="real">295</parameter>
<parameter name="spinmass" condition="double">1</parameter>
<parameter name="spinmoves" condition="string">no</parameter>
<parameter name="steps" condition="int">20</parameter>
<parameter name="stepsbetweensamples" condition="int">6</parameter>
<parameter name="store_configs" condition="int">0</parameter>
<parameter name="storeconfigs" condition="int">0</parameter>
<parameter name="sub_steps" condition="int">2</parameter>
<parameter name="substeps" condition="int">2</parameter>
<parameter name="tau" condition="au">1.5</parameter>
<parameter name="time_step" condition="au">1.5</parameter>
<parameter name="timestep" condition="au">1.5</parameter>
<parameter name="use_drift" condition="string">yes</parameter>
<parameter name="usedrift" condition="string">yes</parameter>
<parameter name="walkers" condition="int">1</parameter>
<parameter name="warmup_steps" condition="int">0</parameter>
<parameter name="warmupsteps" condition="int">0</parameter>
  DumpConfig==false Nothing (configurations, state) will be saved.
  Walker Samples are dumped every 6 steps.
</vmc>
    Restarting, cummulative properties:
      energy     = -2.184
      variance   = 0
      r2accepted = 1e-10
      r2proposed = 1e-10
  Set drift_modifier UNR parameter a = 1
  Adding a default LocalEnergyEstimator for the MainEstimator 
 Using QMCCostFunction::QMCCostFunction
  Set drift_modifier UNR parameter a = 1.0000e+00
<optimization-report>
<vmc stage="main" blocks="100">
  Cannot make clones again. Use existing 1 clones
  Initial partition of walkers 0 1 

  Using Particle by Particle moves
  Walker moves with drift
  Total Sample Size   =320960
  Walker distribution on root = 0 1 
  Using Locality Approximation
===== Memory Usage after the buffer registration =====
Available memory on node 0, free + buffers : 86225 MB
Memory footprint by rank 0 on node 0       : 102 MB
==================================================
  Anonymous Buffer size per walker : 3872 Bytes.
MEMORY increase 0 MB VMC::resetRun
====================================================
  SimpleFixedNodeBranch::finalize after a VMC block
    QMC counter        = 3
    time step          = 1.5
    reference energy   = -2.23579
    reference variance = 0.022735
====================================================
  Execution time = 3.1222e+00
</vmc>
<opt stage="setup">
  <log>
   Reading configurations from h5FileRoot opt.s003
  QMCCostFunction is created with 1 threads.
  Using Nonlocal PP in Opt: no
   Number of samples loaded to each thread : 295 
  VMC Eavg = -2.2448e+00
  VMC Evar = 2.2202e-01
  Total weights = 3.2096e+05
  Execution time = 1.1897e-01
  </log>
</opt>
<opt stage="main" walkers="320960">
  <log>

*****************************************
Building overlap and Hamiltonian matrices
*****************************************

Among totally 144 optimized parameters, largest LM parameter change : 1.2763e-01 at parameter 10

******************************************************************************
Init Cost =   2.2202e-01    New Cost =   2.1860e-01  Delta Cost =  -3.4217e-03
******************************************************************************

The new set of parameters is valid. Updating the trial wave function!

*****************************************************************************
Applying the update for shift_i =   1.0000e-02     and shift_s =   1.5625e-02
*****************************************************************************
  Execution time = 3.5702e+00
  </log>
  <optVariables href="opt.s003.opt.xml">
   uu_0                 2.846602e-02 1 1  ON 0
   uu_1                 1.195625e-01 1 1  ON 1
   uu_2                 6.803623e-02 1 1  ON 2
   uu_3                -2.444225e-02 1 1  ON 3
   uu_4                -6.456512e-02 1 1  ON 4
   uu_5                -7.975727e-02 1 1  ON 5
   uu_6                -7.924170e-02 1 1  ON 6
   uu_7                -6.671966e-02 1 1  ON 7
   uu_8                -4.467623e-02 1 1  ON 8
   uu_9                -1.562816e-02 1 1  ON 9
   ud_0                 6.197729e-01 1 1  ON 10
   ud_1                 3.928889e-01 1 1  ON 11
   ud_2                 1.760939e-01 1 1  ON 12
   ud_3                 1.472505e-02 1 1  ON 13
   ud_4                -9.358469e-02 1 1  ON 14
   ud_5                -1.479264e-01 1 1  ON 15
   ud_6                -1.797687e-01 1 1  ON 16
   ud_7                -1.917337e-01 1 1  ON 17
   ud_8                -1.759654e-01 1 1  ON 18
   ud_9                -1.447221e-01 1 1  ON 19
  eBe_0                -2.133315e-01 1 1  ON 20
  eBe_1                -1.423364e-01 1 1  ON 21
  eBe_2                -7.618629e-02 1 1  ON 22
  eBe_3                 7.881330e-03 1 1  ON 23
  eBe_4                 7.901088e-02 1 1  ON 24
  eBe_5                 1.159828e-01 1 1  ON 25
  eBe_6                 1.057064e-01 1 1  ON 26
  eBe_7                 6.073202e-02 1 1  ON 27
  eBe_8                 4.009035e-02 1 1  ON 28
  eBe_9                 1.683176e-02 1 1  ON 29
   eH_0                -2.993431e-01 1 1  ON 30
   eH_1                -2.320686e-01 1 1  ON 31
   eH_2                -8.099667e-02 1 1  ON 32
   eH_3                -1.038322e-02 1 1  ON 33
   eH_4                 7.831985e-02 1 1  ON 34
   eH_5                 1.144963e-01 1 1  ON 35
   eH_6                 1.128094e-01 1 1  ON 36
   eH_7                 1.083525e-01 1 1  ON 37
   eH_8                 9.134322e-02 1 1  ON 38
   eH_9                 5.238228e-02 1 1  ON 39
 uuBe_0                -3.528910e-03 1 1  ON 40
 uuBe_1                -2.694843e-03 1 1  ON 41
 uuBe_2                -1.010733e-02 1 1  ON 42
 uuBe_3                 1.354675e-02 1 1  ON 43
 uuBe_4                 4.114216e-03 1 1  ON 44
 uuBe_5                 1.745663e-03 1 1  ON 45
 uuBe_6                 5.962938e-03 1 1  ON 46
 uuBe_7                 2.704447e-03 1 1  ON 47
 uuBe_8                -4.086028e-03 1 1  ON 48
 uuBe_9                -4.040694e-03 1 1  ON 49
uuBe_10                 3.766713e-03 1 1  ON 50
uuBe_11                -2.405743e-03 1 1  ON 51
uuBe_12                 2.994819e-04 1 1  ON 52
uuBe_13                -6.015931e-03 1 1  ON 53
uuBe_14                 4.759468e-03 1 1  ON 54
uuBe_15                -8.572078e-04 1 1  ON 55
uuBe_16                 8.037761e-03 1 1  ON 56
uuBe_17                 5.841616e-03 1 1  ON 57
uuBe_18                -4.803647e-03 1 1  ON 58
uuBe_19                 1.300549e-03 1 1  ON 59
uuBe_20                 7.004759e-03 1 1  ON 60
uuBe_21                -1.770922e-03 1 1  ON 61
uuBe_22                 5.196723e-04 1 1  ON 62
uuBe_23                -6.644591e-03 1 1  ON 63
uuBe_24                 7.194015e-04 1 1  ON 64
uuBe_25                -2.469720e-04 1 1  ON 65
 udBe_0                -1.226779e-02 1 1  ON 66
 udBe_1                 5.029920e-03 1 1  ON 67
 udBe_2                -1.408357e-02 1 1  ON 68
 udBe_3                 7.718903e-03 1 1  ON 69
 udBe_4                -8.790263e-03 1 1  ON 70
 udBe_5                -1.835431e-03 1 1  ON 71
 udBe_6                 1.483702e-02 1 1  ON 72
 udBe_7                 2.771357e-02 1 1  ON 73
 udBe_8                -1.678849e-02 1 1  ON 74
 udBe_9                 3.761700e-03 1 1  ON 75
udBe_10                -1.102660e-02 1 1  ON 76
udBe_11                 9.007489e-03 1 1  ON 77
udBe_12                -4.025543e-03 1 1  ON 78
udBe_13                -1.280136e-02 1 1  ON 79
udBe_14                 1.256382e-02 1 1  ON 80
udBe_15                -2.518640e-03 1 1  ON 81
udBe_16                 1.262598e-02 1 1  ON 82
udBe_17                 3.351717e-03 1 1  ON 83
udBe_18                -4.998107e-03 1 1  ON 84
udBe_19                 1.726808e-03 1 1  ON 85
udBe_20                -6.632919e-03 1 1  ON 86
udBe_21                -4.789526e-03 1 1  ON 87
udBe_22                 2.883768e-03 1 1  ON 88
udBe_23                 9.522352e-03 1 1  ON 89
udBe_24                -1.425354e-03 1 1  ON 90
udBe_25                -9.010543e-04 1 1  ON 91
  uuH_0                 1.657727e-03 1 1  ON 92
  uuH_1                 1.092397e-02 1 1  ON 93
  uuH_2                -6.302743e-03 1 1  ON 94
  uuH_3                 1.112375e-02 1 1  ON 95
  uuH_4                -3.407274e-03 1 1  ON 96
  uuH_5                -2.725061e-03 1 1  ON 97
  uuH_6                -8.201349e-03 1 1  ON 98
  uuH_7                 2.971261e-04 1 1  ON 99
  uuH_8                 1.314602e-02 1 1  ON 100
  uuH_9                -5.717088e-03 1 1  ON 101
 uuH_10                 2.231140e-03 1 1  ON 102
 uuH_11                 6.450609e-03 1 1  ON 103
 uuH_12                -1.670749e-02 1 1  ON 104
 uuH_13                -8.332275e-03 1 1  ON 105
 uuH_14                -7.530658e-03 1 1  ON 106
 uuH_15                 7.668395e-03 1 1  ON 107
 uuH_16                 3.059654e-04 1 1  ON 108
 uuH_17                 1.966322e-03 1 1  ON 109
 uuH_18                 5.719603e-04 1 1  ON 110
 uuH_19                -2.222622e-02 1 1  ON 111
 uuH_20                 2.842405e-03 1 1  ON 112
 uuH_21                 1.554133e-02 1 1  ON 113
 uuH_22                 1.574270e-03 1 1  ON 114
 uuH_23                 1.816746e-03 1 1  ON 115
 uuH_24                -7.553796e-04 1 1  ON 116
 uuH_25                 1.688332e-03 1 1  ON 117
  udH_0                -5.187120e-03 1 1  ON 118
  udH_1                -7.061981e-04 1 1  ON 119
  udH_2                 1.193387e-02 1 1  ON 120
  udH_3                 1.960742e-03 1 1  ON 121
  udH_4                -2.898721e-03 1 1  ON 122
  udH_5                 1.440427e-03 1 1  ON 123
  udH_6                 3.619920e-03 1 1  ON 124
  udH_7                -1.516424e-02 1 1  ON 125
  udH_8                 2.338960e-02 1 1  ON 126
  udH_9                 4.550866e-03 1 1  ON 127
 udH_10                 3.492813e-03 1 1  ON 128
 udH_11                -6.245714e-03 1 1  ON 129
 udH_12                -1.824582e-02 1 1  ON 130
 udH_13                -5.996221e-04 1 1  ON 131
 udH_14                 1.070331e-02 1 1  ON 132
 udH_15                 1.633356e-03 1 1  ON 133
 udH_16                -8.739234e-03 1 1  ON 134
 udH_17                 8.210960e-03 1 1  ON 135
 udH_18                 2.490226e-03 1 1  ON 136
 udH_19                 1.781664e-02 1 1  ON 137
 udH_20                 6.305013e-04 1 1  ON 138
 udH_21                -6.471316e-03 1 1  ON 139
 udH_22                -1.774496e-03 1 1  ON 140
 udH_23                 3.571725e-03 1 1  ON 141
 udH_24                 1.470555e-03 1 1  ON 142
 udH_25                -3.125605e-04 1 1  ON 143
  </optVariables>
   Restore the number of walkers to 1, removing 0 walkers.
</opt>
</optimization-report>
  QMC Execution time = 3.593 secs

=========================================================
  Start QMCFixedSampleLinearOptimize
  File Root opt.s004 append = no 
=========================================================
  Skip QMCDriver::putQMCInfo 
  Resetting Properties of the walkers 1 x 14

=========================================================
  Start VMC
  File Root opt.s004 append = no 
=========================================================
Using existing walkers 
  Resetting Properties of the walkers 1 x 14

<vmc function="put">
  qmc_counter=3  my_counter=0
  time step      = 1.5
  blocks         = 100
  steps          = 20
  substeps       = 2
  current        = 0
  target samples = 3.2e+05
  walkers/mpi    = 1

  stepsbetweensamples = 6
  SpinMoves      = no
<parameter name="blocks" condition="int">100</parameter>
<parameter name="blocks_between_recompute" condition="int">0</parameter>
<parameter name="check_properties" condition="int">100</parameter>
<parameter name="checkproperties" condition="int">100</parameter>
<parameter name="current" condition="int">0</parameter>
<parameter name="dmcwalkersperthread" condition="real">295</parameter>
<parameter name="maxcpusecs" condition="real">3.6e+05</parameter>
<parameter name="record_configs" condition="int">0</parameter>
<parameter name="record_walkers" condition="int">6</parameter>
<parameter name="recordconfigs" condition="int">0</parameter>
<parameter name="recordwalkers" condition="int">6</parameter>
<parameter name="rewind" condition="int">0</parameter>
<parameter name="samples" condition="real">3.2e+05</parameter>
<parameter name="samplesperthread" condition="real">295</parameter>
<parameter name="spinmass" condition="double">1</parameter>
<parameter name="spinmoves" condition="string">no</parameter>
<parameter name="steps" condition="int">20</parameter>
<parameter name="stepsbetweensamples" condition="int">6</parameter>
<parameter name="store_configs" condition="int">0</parameter>
<parameter name="storeconfigs" condition="int">0</parameter>
<parameter name="sub_steps" condition="int">2</parameter>
<parameter name="substeps" condition="int">2</parameter>
<parameter name="tau" condition="au">1.5</parameter>
<parameter name="time_step" condition="au">1.5</parameter>
<parameter name="timestep" condition="au">1.5</parameter>
<parameter name="use_drift" condition="string">yes</parameter>
<parameter name="usedrift" condition="string">yes</parameter>
<parameter name="walkers" condition="int">1</parameter>
<parameter name="warmup_steps" condition="int">0</parameter>
<parameter name="warmupsteps" condition="int">0</parameter>
  DumpConfig==false Nothing (configurations, state) will be saved.
  Walker Samples are dumped every 6 steps.
</vmc>
    Restarting, cummulative properties:
      energy     = -2.197
      variance   = 0
      r2accepted = 1e-10
      r2proposed = 1e-10
  Set drift_modifier UNR parameter a = 1
  Adding a default LocalEnergyEstimator for the MainEstimator 
 Using QMCCostFunction::QMCCostFunction
  Set drift_modifier UNR parameter a = 1.0000e+00
<optimization-report>
<vmc stage="main" blocks="100">
  Cannot make clones again. Use existing 1 clones
  Initial partition of walkers 0 1 

  Using Particle by Particle moves
  Walker moves with drift
  Total Sample Size   =320960
  Walker distribution on root = 0 1 
  Using Locality Approximation
===== Memory Usage after the buffer registration =====
Available memory on node 0, free + buffers : 86246 MB
Memory footprint by rank 0 on node 0       : 104 MB
==================================================
  Anonymous Buffer size per walker : 3872 Bytes.
MEMORY increase 0 MB VMC::resetRun
====================================================
  SimpleFixedNodeBranch::finalize after a VMC block
    QMC counter        = 4
    time step          = 1.5
    reference energy   = -2.24129
    reference variance = 0.0233959
====================================================
  Execution time = 2.6293e+00
</vmc>
<opt stage="setup">
  <log>
   Reading configurations from h5FileRoot opt.s004
  QMCCostFunction is created with 1 threads.
  Using Nonlocal PP in Opt: no
   Number of samples loaded to each thread : 295 
  VMC Eavg = -2.2459e+00
  VMC Evar = 2.2582e-01
  Total weights = 3.2096e+05
  Execution time = 1.2545e-01
  </log>
</opt>
<opt stage="main" walkers="320960">
  <log>

*****************************************
Building overlap and Hamiltonian matrices
*****************************************

Among totally 144 optimized parameters, largest LM parameter change : 7.8969e-02 at parameter 10

******************************************************************************
Init Cost =   2.2582e-01    New Cost =   2.3350e-01  Delta Cost =   7.6774e-03
******************************************************************************

The new set of parameters is valid. Updating the trial wave function!

*****************************************************************************
Applying the update for shift_i =   1.0000e-02     and shift_s =   3.9062e-03
*****************************************************************************
  Execution time = 3.0899e+00
  </log>
  <optVariables href="opt.s004.opt.xml">
   uu_0                 3.659602e-02 1 1  ON 0
   uu_1                 1.419081e-01 1 1  ON 1
   uu_2                 6.967626e-02 1 1  ON 2
   uu_3                -2.415199e-02 1 1  ON 3
   uu_4                -7.036325e-02 1 1  ON 4
   uu_5                -9.066356e-02 1 1  ON 5
   uu_6                -9.322155e-02 1 1  ON 6
   uu_7                -8.181713e-02 1 1  ON 7
   uu_8                -5.939319e-02 1 1  ON 8
   uu_9                -2.411351e-02 1 1  ON 9
   ud_0                 6.987416e-01 1 1  ON 10
   ud_1                 4.313201e-01 1 1  ON 11
   ud_2                 2.026355e-01 1 1  ON 12
   ud_3                 3.825756e-02 1 1  ON 13
   ud_4                -7.520638e-02 1 1  ON 14
   ud_5                -1.379371e-01 1 1  ON 15
   ud_6                -1.764124e-01 1 1  ON 16
   ud_7                -1.983010e-01 1 1  ON 17
   ud_8                -1.938320e-01 1 1  ON 18
   ud_9                -1.707570e-01 1 1  ON 19
  eBe_0                -2.492594e-01 1 1  ON 20
  eBe_1                -1.480507e-01 1 1  ON 21
  eBe_2                -8.201182e-02 1 1  ON 22
  eBe_3                 3.298422e-03 1 1  ON 23
  eBe_4                 7.837923e-02 1 1  ON 24
  eBe_5                 1.169410e-01 1 1  ON 25
  eBe_6                 1.187934e-01 1 1  ON 26
  eBe_7                 7.826956e-02 1 1  ON 27
  eBe_8                 5.446950e-02 1 1  ON 28
  eBe_9                 2.260519e-02 1 1  ON 29
   eH_0                -3.250588e-01 1 1  ON 30
   eH_1                -2.558925e-01 1 1  ON 31
   eH_2                -1.019173e-01 1 1  ON 32
   eH_3                -2.247476e-02 1 1  ON 33
   eH_4                 7.220431e-02 1 1  ON 34
   eH_5                 1.202325e-01 1 1  ON 35
   eH_6                 1.278269e-01 1 1  ON 36
   eH_7                 1.270991e-01 1 1  ON 37
   eH_8                 1.097352e-01 1 1  ON 38
   eH_9                 6.405565e-02 1 1  ON 39
 uuBe_0                -3.031743e-03 1 1  ON 40
 uuBe_1                 1.142600e-03 1 1  ON 41
 uuBe_2                -1.255205e-02 1 1  ON 42
 uuBe_3                 1.422317e-02 1 1  ON 43
 uuBe_4                 4.775629e-03 1 1  ON 44
 uuBe_5                -1.289547e-03 1 1  ON 45
 uuBe_6                 8.190313e-03 1 1  ON 46
 uuBe_7                 4.513671e-03 1 1  ON 47
 uuBe_8                -4.242066e-03 1 1  ON 48
 uuBe_9                -6.899890e-04 1 1  ON 49
uuBe_10                 1.755492e-03 1 1  ON 50
uuBe_11                -2.356634e-03 1 1  ON 51
uuBe_12                 7.084158e-04 1 1  ON 52
uuBe_13                -6.715673e-03 1 1  ON 53
uuBe_14                 2.712060e-03 1 1  ON 54
uuBe_15                -2.605359e-04 1 1  ON 55
uuBe_16                 5.920262e-03 1 1  ON 56
uuBe_17                 4.306634e-03 1 1  ON 57
uuBe_18                -4.689781e-03 1 1  ON 58
uuBe_19                 3.347506e-03 1 1  ON 59
uuBe_20                 3.625989e-03 1 1  ON 60
uuBe_21                 8.000786e-04 1 1  ON 61
uuBe_22                -1.264230e-03 1 1  ON 62
uuBe_23                -3.583943e-03 1 1  ON 63
uuBe_24                -7.222256e-04 1 1  ON 64
uuBe_25                 6.651725e-04 1 1  ON 65
 udBe_0                -8.875465e-03 1 1  ON 66
 udBe_1                 5.441039e-03 1 1  ON 67
 udBe_2                -1.959359e-02 1 1  ON 68
 udBe_3                 3.915358e-03 1 1  ON 69
 udBe_4                -1.221689e-02 1 1  ON 70
 udBe_5                -2.697332e-03 1 1  ON 71
 udBe_6                 1.257308e-02 1 1  ON 72
 udBe_7                 3.228313e-02 1 1  ON 73
 udBe_8                -1.591256e-02 1 1  ON 74
 udBe_9                 6.612686e-03 1 1  ON 75
udBe_10                -1.910952e-02 1 1  ON 76
udBe_11                 1.179603e-02 1 1  ON 77
udBe_12                -7.000800e-03 1 1  ON 78
udBe_13                -1.530894e-02 1 1  ON 79
udBe_14                 1.247196e-02 1 1  ON 80
udBe_15                -1.644241e-03 1 1  ON 81
udBe_16                 1.902514e-02 1 1  ON 82
udBe_17                 1.542009e-03 1 1  ON 83
udBe_18                -5.128952e-03 1 1  ON 84
udBe_19                 5.807401e-03 1 1  ON 85
udBe_20                -4.602157e-03 1 1  ON 86
udBe_21                -4.249197e-03 1 1  ON 87
udBe_22                 9.662588e-04 1 1  ON 88
udBe_23                 6.440675e-03 1 1  ON 89
udBe_24                -1.115385e-03 1 1  ON 90
udBe_25                -1.428333e-04 1 1  ON 91
  uuH_0                 4.516897e-04 1 1  ON 92
  uuH_1                 9.988274e-03 1 1  ON 93
  uuH_2                -6.686571e-03 1 1  ON 94
  uuH_3                 9.429039e-03 1 1  ON 95
  uuH_4                 2.319522e-03 1 1  ON 96
  uuH_5                 1.174266e-03 1 1  ON 97
  uuH_6                -5.800267e-03 1 1  ON 98
  uuH_7                 1.433948e-03 1 1  ON 99
  uuH_8                 1.250275e-02 1 1  ON 100
  uuH_9                -2.868150e-03 1 1  ON 101
 uuH_10                 3.712315e-03 1 1  ON 102
 uuH_11                 8.044566e-03 1 1  ON 103
 uuH_12                -1.618455e-02 1 1  ON 104
 uuH_13                -1.083419e-02 1 1  ON 105
 uuH_14                -1.368117e-02 1 1  ON 106
 uuH_15                 1.180593e-02 1 1  ON 107
 uuH_16                 2.236147e-03 1 1  ON 108
 uuH_17                 8.123972e-03 1 1  ON 109
 uuH_18                 6.228887e-03 1 1  ON 110
 uuH_19                -1.772095e-02 1 1  ON 111
 uuH_20                -2.249613e-05 1 1  ON 112
 uuH_21                 1.984662e-02 1 1  ON 113
 uuH_22                -4.073806e-03 1 1  ON 114
 uuH_23                -5.883236e-03 1 1  ON 115
 uuH_24                -2.778304e-04 1 1  ON 116
 uuH_25                 3.289132e-03 1 1  ON 117
  udH_0                -6.100752e-03 1 1  ON 118
  udH_1                -1.257775e-04 1 1  ON 119
  udH_2                 1.614137e-02 1 1  ON 120
  udH_3                 1.116560e-03 1 1  ON 121
  udH_4                -4.820906e-03 1 1  ON 122
  udH_5                 1.239287e-03 1 1  ON 123
  udH_6                 6.602119e-03 1 1  ON 124
  udH_7                -1.385559e-02 1 1  ON 125
  udH_8                 2.897291e-02 1 1  ON 126
  udH_9                 3.345268e-03 1 1  ON 127
 udH_10                 2.371512e-03 1 1  ON 128
 udH_11                -8.789557e-03 1 1  ON 129
 udH_12                -2.075213e-02 1 1  ON 130
 udH_13                -4.205318e-04 1 1  ON 131
 udH_14                 1.152029e-02 1 1  ON 132
 udH_15                 1.982559e-03 1 1  ON 133
 udH_16                -8.508679e-03 1 1  ON 134
 udH_17                 8.177730e-03 1 1  ON 135
 udH_18                 3.239231e-03 1 1  ON 136
 udH_19                 1.937876e-02 1 1  ON 137
 udH_20                 2.427664e-03 1 1  ON 138
 udH_21                -6.369961e-03 1 1  ON 139
 udH_22                -2.287667e-03 1 1  ON 140
 udH_23                 5.340053e-04 1 1  ON 141
 udH_24                 2.125030e-03 1 1  ON 142
 udH_25                -2.388134e-04 1 1  ON 143
  </optVariables>
   Restore the number of walkers to 1, removing 0 walkers.
</opt>
</optimization-report>
  QMC Execution time = 3.108 secs

=========================================================
  Start QMCFixedSampleLinearOptimize
  File Root opt.s005 append = no 
=========================================================
  Skip QMCDriver::putQMCInfo 
  Resetting Properties of the walkers 1 x 14

=========================================================
  Start VMC
  File Root opt.s005 append = no 
=========================================================
Using existing walkers 
  Resetting Properties of the walkers 1 x 14

<vmc function="put">
  qmc_counter=4  my_counter=0
  time step      = 1.5
  blocks         = 100
  steps          = 20
  substeps       = 2
  current        = 0
  target samples = 3.2e+05
  walkers/mpi    = 1

  stepsbetweensamples = 6
  SpinMoves      = no
<parameter name="blocks" condition="int">100</parameter>
<parameter name="blocks_between_recompute" condition="int">0</parameter>
<parameter name="check_properties" condition="int">100</parameter>
<parameter name="checkproperties" condition="int">100</parameter>
<parameter name="current" condition="int">0</parameter>
<parameter name="dmcwalkersperthread" condition="real">295</parameter>
<parameter name="maxcpusecs" condition="real">3.6e+05</parameter>
<parameter name="record_configs" condition="int">0</parameter>
<parameter name="record_walkers" condition="int">6</parameter>
<parameter name="recordconfigs" condition="int">0</parameter>
<parameter name="recordwalkers" condition="int">6</parameter>
<parameter name="rewind" condition="int">0</parameter>
<parameter name="samples" condition="real">3.2e+05</parameter>
<parameter name="samplesperthread" condition="real">295</parameter>
<parameter name="spinmass" condition="double">1</parameter>
<parameter name="spinmoves" condition="string">no</parameter>
<parameter name="steps" condition="int">20</parameter>
<parameter name="stepsbetweensamples" condition="int">6</parameter>
<parameter name="store_configs" condition="int">0</parameter>
<parameter name="storeconfigs" condition="int">0</parameter>
<parameter name="sub_steps" condition="int">2</parameter>
<parameter name="substeps" condition="int">2</parameter>
<parameter name="tau" condition="au">1.5</parameter>
<parameter name="time_step" condition="au">1.5</parameter>
<parameter name="timestep" condition="au">1.5</parameter>
<parameter name="use_drift" condition="string">yes</parameter>
<parameter name="usedrift" condition="string">yes</parameter>
<parameter name="walkers" condition="int">1</parameter>
<parameter name="warmup_steps" condition="int">0</parameter>
<parameter name="warmupsteps" condition="int">0</parameter>
  DumpConfig==false Nothing (configurations, state) will be saved.
  Walker Samples are dumped every 6 steps.
</vmc>
    Restarting, cummulative properties:
      energy     = -2.206
      variance   = 0
      r2accepted = 1e-10
      r2proposed = 1e-10
  Set drift_modifier UNR parameter a = 1
  Adding a default LocalEnergyEstimator for the MainEstimator 
 Using QMCCostFunction::QMCCostFunction
  Set drift_modifier UNR parameter a = 1.0000e+00
<optimization-report>
<vmc stage="main" blocks="100">
  Cannot make clones again. Use existing 1 clones
  Initial partition of walkers 0 1 

  Using Particle by Particle moves
  Walker moves with drift
  Total Sample Size   =320960
  Walker distribution on root = 0 1 
  Using Locality Approximation
===== Memory Usage after the buffer registration =====
Available memory on node 0, free + buffers : 86258 MB
Memory footprint by rank 0 on node 0       : 104 MB
==================================================
  Anonymous Buffer size per walker : 3872 Bytes.
MEMORY increase 0 MB VMC::resetRun
====================================================
  SimpleFixedNodeBranch::finalize after a VMC block
    QMC counter        = 5
    time step          = 1.5
    reference energy   = -2.24076
    reference variance = 0.0165921
====================================================
  Execution time = 2.1428e+00
</vmc>
<opt stage="setup">
  <log>
   Reading configurations from h5FileRoot opt.s005
  QMCCostFunction is created with 1 threads.
  Using Nonlocal PP in Opt: no
   Number of samples loaded to each thread : 295 
  VMC Eavg = -2.2464e+00
  VMC Evar = 2.1388e-01
  Total weights = 3.2096e+05
  Execution time = 1.2470e-01
  </log>
</opt>
<opt stage="main" walkers="320960">
  <log>

*****************************************
[...]
******************************************************************************

The new set of parameters is valid. Updating the trial wave function!

*****************************************************************************
Applying the update for shift_i =   1.0000e-02     and shift_s =   3.9062e-03
*****************************************************************************
  Execution time = 3.5580e+00
  </log>
  <optVariables href="opt.s049.opt.xml">
   uu_0                 2.992517e-01 1 1  ON 0
   uu_1                 2.477673e-01 1 1  ON 1
   uu_2                 1.100449e-01 1 1  ON 2
   uu_3                 9.984250e-03 1 1  ON 3
   uu_4                -4.346618e-02 1 1  ON 4
   uu_5                -7.227187e-02 1 1  ON 5
   uu_6                -8.496532e-02 1 1  ON 6
   uu_7                -8.488803e-02 1 1  ON 7
   uu_8                -7.329250e-02 1 1  ON 8
   uu_9                -5.436502e-02 1 1  ON 9
   ud_0                 1.145474e+00 1 1  ON 10
   ud_1                 8.098919e-01 1 1  ON 11
   ud_2                 5.695974e-01 1 1  ON 12
   ud_3                 3.966454e-01 1 1  ON 13
   ud_4                 2.689263e-01 1 1  ON 14
   ud_5                 1.839537e-01 1 1  ON 15
   ud_6                 1.181299e-01 1 1  ON 16
   ud_7                 6.553196e-02 1 1  ON 17
   ud_8                 2.559222e-02 1 1  ON 18
   ud_9                -4.534266e-03 1 1  ON 19
  eBe_0                -3.471834e-01 1 1  ON 20
  eBe_1                -2.537891e-01 1 1  ON 21
  eBe_2                -1.859065e-01 1 1  ON 22
  eBe_3                -9.116923e-02 1 1  ON 23
  eBe_4                -8.053654e-03 1 1  ON 24
  eBe_5                 4.875975e-02 1 1  ON 25
  eBe_6                 6.793349e-02 1 1  ON 26
  eBe_7                 1.037007e-01 1 1  ON 27
  eBe_8                 2.080075e-01 1 1  ON 28
  eBe_9                 2.231103e-01 1 1  ON 29
   eH_0                -4.705471e-01 1 1  ON 30
   eH_1                -3.963275e-01 1 1  ON 31
   eH_2                -2.408940e-01 1 1  ON 32
   eH_3                -1.538272e-01 1 1  ON 33
   eH_4                -4.932416e-02 1 1  ON 34
   eH_5                 2.020492e-02 1 1  ON 35
   eH_6                 5.493596e-02 1 1  ON 36
   eH_7                 8.930088e-02 1 1  ON 37
   eH_8                 1.153700e-01 1 1  ON 38
   eH_9                 1.109337e-01 1 1  ON 39
 uuBe_0                -3.266613e-03 1 1  ON 40
 uuBe_1                -5.822576e-03 1 1  ON 41
 uuBe_2                -7.741833e-03 1 1  ON 42
 uuBe_3                 1.493131e-02 1 1  ON 43
 uuBe_4                 1.186611e-02 1 1  ON 44
 uuBe_5                 1.294546e-03 1 1  ON 45
 uuBe_6                -4.895867e-03 1 1  ON 46
 uuBe_7                -1.676345e-02 1 1  ON 47
 uuBe_8                -1.341867e-02 1 1  ON 48
 uuBe_9                 1.946325e-03 1 1  ON 49
uuBe_10                 1.373372e-02 1 1  ON 50
uuBe_11                 8.550577e-03 1 1  ON 51
uuBe_12                 3.355108e-03 1 1  ON 52
uuBe_13                -8.044512e-03 1 1  ON 53
uuBe_14                -5.101412e-03 1 1  ON 54
uuBe_15                 1.133336e-03 1 1  ON 55
uuBe_16                 7.866104e-03 1 1  ON 56
uuBe_17                -4.735895e-03 1 1  ON 57
uuBe_18                -1.354450e-02 1 1  ON 58
uuBe_19                 8.842828e-03 1 1  ON 59
uuBe_20                -3.586076e-04 1 1  ON 60
uuBe_21                 5.172157e-03 1 1  ON 61
uuBe_22                -4.351228e-03 1 1  ON 62
uuBe_23                -3.309214e-03 1 1  ON 63
uuBe_24                -1.589871e-03 1 1  ON 64
uuBe_25                 1.821277e-03 1 1  ON 65
 udBe_0                 4.285009e-03 1 1  ON 66
 udBe_1                 8.175197e-03 1 1  ON 67
 udBe_2                -5.537517e-02 1 1  ON 68
 udBe_3                -1.341142e-02 1 1  ON 69
 udBe_4                -2.271496e-02 1 1  ON 70
 udBe_5                -2.812106e-04 1 1  ON 71
 udBe_6                -1.314270e-03 1 1  ON 72
 udBe_7                 6.607546e-02 1 1  ON 73
 udBe_8                -5.241754e-02 1 1  ON 74
 udBe_9                -4.600822e-03 1 1  ON 75
udBe_10                -5.225939e-02 1 1  ON 76
udBe_11                 4.519445e-02 1 1  ON 77
udBe_12                -2.361075e-03 1 1  ON 78
udBe_13                -7.570294e-03 1 1  ON 79
udBe_14                 6.357059e-03 1 1  ON 80
udBe_15                -1.268555e-03 1 1  ON 81
udBe_16                 6.697446e-02 1 1  ON 82
udBe_17                -1.997561e-03 1 1  ON 83
udBe_18                -2.399303e-02 1 1  ON 84
udBe_19                 7.965240e-03 1 1  ON 85
udBe_20                -1.614633e-02 1 1  ON 86
udBe_21                 1.073564e-03 1 1  ON 87
udBe_22                -8.810902e-04 1 1  ON 88
udBe_23                 7.263314e-03 1 1  ON 89
udBe_24                -2.304616e-03 1 1  ON 90
udBe_25                 6.269996e-04 1 1  ON 91
  uuH_0                 1.052697e-02 1 1  ON 92
  uuH_1                 1.751533e-02 1 1  ON 93
  uuH_2                -2.021054e-02 1 1  ON 94
  uuH_3                -1.307180e-03 1 1  ON 95
  uuH_4                 1.138282e-02 1 1  ON 96
  uuH_5                 5.586759e-03 1 1  ON 97
  uuH_6                -2.495373e-02 1 1  ON 98
  uuH_7                -3.065935e-02 1 1  ON 99
  uuH_8                 5.849627e-02 1 1  ON 100
  uuH_9                 8.032752e-03 1 1  ON 101
 uuH_10                 4.739249e-03 1 1  ON 102
 uuH_11                -2.362562e-02 1 1  ON 103
 uuH_12                -9.817847e-03 1 1  ON 104
 uuH_13                -2.697563e-02 1 1  ON 105
 uuH_14                -1.790614e-02 1 1  ON 106
 uuH_15                 9.443972e-03 1 1  ON 107
 uuH_16                 6.927779e-03 1 1  ON 108
 uuH_17                 1.156855e-02 1 1  ON 109
 uuH_18                -5.649426e-03 1 1  ON 110
 uuH_19                -6.425048e-02 1 1  ON 111
 uuH_20                 1.525397e-02 1 1  ON 112
 uuH_21                 7.992250e-02 1 1  ON 113
 uuH_22                -7.103591e-03 1 1  ON 114
 uuH_23                -2.289616e-02 1 1  ON 115
 uuH_24                -4.140616e-02 1 1  ON 116
 uuH_25                 1.497465e-02 1 1  ON 117
  udH_0                -9.557558e-03 1 1  ON 118
  udH_1                 1.400449e-03 1 1  ON 119
  udH_2                 3.431972e-02 1 1  ON 120
  udH_3                 2.001138e-03 1 1  ON 121
  udH_4                -9.801241e-03 1 1  ON 122
  udH_5                 9.345935e-04 1 1  ON 123
  udH_6                 1.916892e-02 1 1  ON 124
  udH_7                -4.506767e-03 1 1  ON 125
  udH_8                 5.431309e-02 1 1  ON 126
  udH_9                -4.287318e-03 1 1  ON 127
 udH_10                 4.181331e-03 1 1  ON 128
 udH_11                -4.208564e-02 1 1  ON 129
 udH_12                -2.742134e-02 1 1  ON 130
 udH_13                -3.849701e-03 1 1  ON 131
 udH_14                 1.510873e-02 1 1  ON 132
 udH_15                 2.620606e-03 1 1  ON 133
 udH_16                 1.405771e-02 1 1  ON 134
 udH_17                -1.859626e-02 1 1  ON 135
 udH_18                 5.466294e-02 1 1  ON 136
 udH_19                 1.421109e-02 1 1  ON 137
 udH_20                -1.176960e-03 1 1  ON 138
 udH_21                -1.644959e-02 1 1  ON 139
 udH_22                -4.584130e-04 1 1  ON 140
 udH_23                 2.705256e-04 1 1  ON 141
 udH_24                 5.119473e-03 1 1  ON 142
 udH_25                -8.988317e-04 1 1  ON 143
  </optVariables>
   Restore the number of walkers to 1, removing 0 walkers.
</opt>
</optimization-report>
  QMC Execution time = 3.696 secs

=========================================================
  Start QMCFixedSampleLinearOptimize
  File Root opt.s050 append = no 
=========================================================
  Skip QMCDriver::putQMCInfo 
  Resetting Properties of the walkers 1 x 14

=========================================================
  Start VMC
  File Root opt.s050 append = no 
=========================================================
Using existing walkers 
  Resetting Properties of the walkers 1 x 14

<vmc function="put">
  qmc_counter=9  my_counter=0
  time step      = 1.5
  blocks         = 100
  steps          = 20
  substeps       = 2
  current        = 0
  target samples = 1.28e+06
  walkers/mpi    = 1

  stepsbetweensamples = 1
  SpinMoves      = no
<parameter name="blocks" condition="int">100</parameter>
<parameter name="blocks_between_recompute" condition="int">0</parameter>
<parameter name="check_properties" condition="int">100</parameter>
<parameter name="checkproperties" condition="int">100</parameter>
<parameter name="current" condition="int">0</parameter>
<parameter name="dmcwalkersperthread" condition="real">1177</parameter>
<parameter name="maxcpusecs" condition="real">3.6e+05</parameter>
<parameter name="record_configs" condition="int">0</parameter>
<parameter name="record_walkers" condition="int">1</parameter>
<parameter name="recordconfigs" condition="int">0</parameter>
<parameter name="recordwalkers" condition="int">1</parameter>
<parameter name="rewind" condition="int">0</parameter>
<parameter name="samples" condition="real">1.28e+06</parameter>
<parameter name="samplesperthread" condition="real">1177</parameter>
<parameter name="spinmass" condition="double">1</parameter>
<parameter name="spinmoves" condition="string">no</parameter>
<parameter name="steps" condition="int">20</parameter>
<parameter name="stepsbetweensamples" condition="int">1</parameter>
<parameter name="store_configs" condition="int">0</parameter>
<parameter name="storeconfigs" condition="int">0</parameter>
<parameter name="sub_steps" condition="int">2</parameter>
<parameter name="substeps" condition="int">2</parameter>
<parameter name="tau" condition="au">1.5</parameter>
<parameter name="time_step" condition="au">1.5</parameter>
<parameter name="timestep" condition="au">1.5</parameter>
<parameter name="use_drift" condition="string">yes</parameter>
<parameter name="usedrift" condition="string">yes</parameter>
<parameter name="walkers" condition="int">1</parameter>
<parameter name="warmup_steps" condition="int">0</parameter>
<parameter name="warmupsteps" condition="int">0</parameter>
  DumpConfig==false Nothing (configurations, state) will be saved.
  Walker Samples are dumped every 1 steps.
</vmc>
    Restarting, cummulative properties:
      energy     = -2.237
      variance   = 0
      r2accepted = 1e-10
      r2proposed = 1e-10
  Set drift_modifier UNR parameter a = 1
  Adding a default LocalEnergyEstimator for the MainEstimator 
 Using QMCCostFunction::QMCCostFunction
  Set drift_modifier UNR parameter a = 1.0000e+00
<optimization-report>
<vmc stage="main" blocks="100">
  Cannot make clones again. Use existing 1 clones
  Initial partition of walkers 0 1 

  Using Particle by Particle moves
  Walker moves with drift
  Total Sample Size   =1280576
  Walker distribution on root = 0 1 
  Using Locality Approximation
===== Memory Usage after the buffer registration =====
Available memory on node 0, free + buffers : 85947 MB
Memory footprint by rank 0 on node 0       : 179 MB
==================================================
  Anonymous Buffer size per walker : 3872 Bytes.
MEMORY increase 0 MB VMC::resetRun
====================================================
  SimpleFixedNodeBranch::finalize after a VMC block
    QMC counter        = 50
    time step          = 1.5
    reference energy   = -2.24382
    reference variance = 0.024308
====================================================
  Execution time = 3.2187e+00
</vmc>
<opt stage="setup">
  <log>
   Reading configurations from h5FileRoot opt.s050
  QMCCostFunction is created with 1 threads.
  Using Nonlocal PP in Opt: no
   Number of samples loaded to each thread : 1177 
  VMC Eavg = -2.2435e+00
  VMC Evar = 2.4052e-01
  Total weights = 1.2806e+06
  Execution time = 4.7975e-01
  </log>
</opt>
<opt stage="main" walkers="1280576">
  <log>

*****************************************
Building overlap and Hamiltonian matrices
*****************************************

Among totally 144 optimized parameters, largest LM parameter change : 1.0189e-02 at parameter 20

******************************************************************************
Init Cost =  -1.9951e+00    New Cost =  -1.9953e+00  Delta Cost =  -2.6681e-04
******************************************************************************

The new set of parameters is valid. Updating the trial wave function!

*****************************************************************************
Applying the update for shift_i =   1.0000e-02     and shift_s =   3.9062e-03
*****************************************************************************
  Execution time = 4.8424e+00
  </log>
  <optVariables href="opt.s050.opt.xml">
   uu_0                 3.031716e-01 1 1  ON 0
   uu_1                 2.482800e-01 1 1  ON 1
   uu_2                 1.140747e-01 1 1  ON 2
   uu_3                 1.212461e-02 1 1  ON 3
   uu_4                -4.263336e-02 1 1  ON 4
   uu_5                -7.387472e-02 1 1  ON 5
   uu_6                -8.754918e-02 1 1  ON 6
   uu_7                -8.746582e-02 1 1  ON 7
   uu_8                -7.445372e-02 1 1  ON 8
   uu_9                -5.476755e-02 1 1  ON 9
   ud_0                 1.146664e+00 1 1  ON 10
   ud_1                 8.094457e-01 1 1  ON 11
   ud_2                 5.696947e-01 1 1  ON 12
   ud_3                 3.972518e-01 1 1  ON 13
   ud_4                 2.704866e-01 1 1  ON 14
   ud_5                 1.858522e-01 1 1  ON 15
   ud_6                 1.200581e-01 1 1  ON 16
   ud_7                 6.815965e-02 1 1  ON 17
   ud_8                 2.763375e-02 1 1  ON 18
   ud_9                -4.952523e-04 1 1  ON 19
  eBe_0                -3.573727e-01 1 1  ON 20
  eBe_1                -2.519675e-01 1 1  ON 21
  eBe_2                -1.840059e-01 1 1  ON 22
  eBe_3                -8.975284e-02 1 1  ON 23
  eBe_4                -8.170110e-03 1 1  ON 24
  eBe_5                 4.528024e-02 1 1  ON 25
  eBe_6                 6.256511e-02 1 1  ON 26
  eBe_7                 1.024712e-01 1 1  ON 27
  eBe_8                 2.090282e-01 1 1  ON 28
  eBe_9                 2.280886e-01 1 1  ON 29
   eH_0                -4.721540e-01 1 1  ON 30
   eH_1                -3.990781e-01 1 1  ON 31
   eH_2                -2.436848e-01 1 1  ON 32
   eH_3                -1.553495e-01 1 1  ON 33
   eH_4                -5.408413e-02 1 1  ON 34
   eH_5                 1.656084e-02 1 1  ON 35
   eH_6                 5.293364e-02 1 1  ON 36
   eH_7                 8.935836e-02 1 1  ON 37
   eH_8                 1.138442e-01 1 1  ON 38
   eH_9                 1.098568e-01 1 1  ON 39
 uuBe_0                -4.078105e-03 1 1  ON 40
 uuBe_1                -5.228094e-03 1 1  ON 41
 uuBe_2                -7.437841e-03 1 1  ON 42
 uuBe_3                 1.885631e-02 1 1  ON 43
 uuBe_4                 9.629638e-03 1 1  ON 44
 uuBe_5                 2.024960e-03 1 1  ON 45
 uuBe_6                -2.742594e-03 1 1  ON 46
 uuBe_7                -1.459111e-02 1 1  ON 47
 uuBe_8                -1.656468e-02 1 1  ON 48
 uuBe_9                -1.159228e-03 1 1  ON 49
uuBe_10                 1.546397e-02 1 1  ON 50
uuBe_11                 9.371307e-03 1 1  ON 51
uuBe_12                 2.205472e-03 1 1  ON 52
uuBe_13                -7.988511e-03 1 1  ON 53
uuBe_14                -3.515341e-03 1 1  ON 54
uuBe_15                 9.410444e-04 1 1  ON 55
uuBe_16                 6.029256e-03 1 1  ON 56
uuBe_17                -5.188301e-03 1 1  ON 57
uuBe_18                -1.370458e-02 1 1  ON 58
uuBe_19                 9.317809e-03 1 1  ON 59
uuBe_20                -1.695323e-03 1 1  ON 60
uuBe_21                 5.252789e-03 1 1  ON 61
uuBe_22                -4.065049e-03 1 1  ON 62
uuBe_23                -2.787245e-03 1 1  ON 63
uuBe_24                -1.999115e-03 1 1  ON 64
uuBe_25                 1.681762e-03 1 1  ON 65
 udBe_0                 5.234767e-03 1 1  ON 66
 udBe_1                 1.141107e-02 1 1  ON 67
 udBe_2                -5.801741e-02 1 1  ON 68
 udBe_3                -1.395763e-02 1 1  ON 69
 udBe_4                -2.308647e-02 1 1  ON 70
 udBe_5                -1.666971e-03 1 1  ON 71
 udBe_6                 1.332346e-03 1 1  ON 72
 udBe_7                 6.733882e-02 1 1  ON 73
 udBe_8                -5.182110e-02 1 1  ON 74
 udBe_9                -1.753480e-03 1 1  ON 75
udBe_10                -5.444901e-02 1 1  ON 76
udBe_11                 4.442865e-02 1 1  ON 77
udBe_12                -2.144069e-03 1 1  ON 78
udBe_13                -1.117554e-02 1 1  ON 79
udBe_14                 7.537132e-03 1 1  ON 80
udBe_15                -1.693448e-03 1 1  ON 81
udBe_16                 6.826278e-02 1 1  ON 82
udBe_17                -1.922787e-03 1 1  ON 83
udBe_18                -2.532620e-02 1 1  ON 84
udBe_19                 6.368588e-03 1 1  ON 85
udBe_20                -1.642511e-02 1 1  ON 86
udBe_21                 2.218710e-03 1 1  ON 87
udBe_22                -3.953863e-04 1 1  ON 88
udBe_23                 8.404123e-03 1 1  ON 89
udBe_24                -3.269948e-03 1 1  ON 90
udBe_25                 5.835331e-04 1 1  ON 91
  uuH_0                 1.045885e-02 1 1  ON 92
  uuH_1                 1.750549e-02 1 1  ON 93
  uuH_2                -1.974586e-02 1 1  ON 94
  uuH_3                -3.051119e-03 1 1  ON 95
  uuH_4                 1.533631e-02 1 1  ON 96
  uuH_5                 6.780199e-03 1 1  ON 97
  uuH_6                -2.524607e-02 1 1  ON 98
  uuH_7                -3.151000e-02 1 1  ON 99
  uuH_8                 5.959732e-02 1 1  ON 100
  uuH_9                 9.722884e-03 1 1  ON 101
 uuH_10                 4.163967e-03 1 1  ON 102
 uuH_11                -2.489872e-02 1 1  ON 103
 uuH_12                -8.486450e-03 1 1  ON 104
 uuH_13                -2.637276e-02 1 1  ON 105
 uuH_14                -1.821277e-02 1 1  ON 106
 uuH_15                 9.313474e-03 1 1  ON 107
 uuH_16                 7.899800e-03 1 1  ON 108
 uuH_17                 1.140155e-02 1 1  ON 109
 uuH_18                -6.495879e-03 1 1  ON 110
 uuH_19                -6.317525e-02 1 1  ON 111
 uuH_20                 1.586103e-02 1 1  ON 112
 uuH_21                 7.942385e-02 1 1  ON 113
 uuH_22                -5.594712e-03 1 1  ON 114
 uuH_23                -2.427549e-02 1 1  ON 115
 uuH_24                -4.205966e-02 1 1  ON 116
 uuH_25                 1.309548e-02 1 1  ON 117
  udH_0                -9.561284e-03 1 1  ON 118
  udH_1                 1.666265e-03 1 1  ON 119
  udH_2                 3.452400e-02 1 1  ON 120
  udH_3                 1.798157e-03 1 1  ON 121
  udH_4                -9.867065e-03 1 1  ON 122
  udH_5                 9.151587e-04 1 1  ON 123
  udH_6                 1.966703e-02 1 1  ON 124
  udH_7                -4.820351e-03 1 1  ON 125
  udH_8                 5.439285e-02 1 1  ON 126
  udH_9                -4.486645e-03 1 1  ON 127
 udH_10                 4.005834e-03 1 1  ON 128
 udH_11                -4.202826e-02 1 1  ON 129
 udH_12                -2.741433e-02 1 1  ON 130
 udH_13                -3.912248e-03 1 1  ON 131
 udH_14                 1.486864e-02 1 1  ON 132
 udH_15                 2.664502e-03 1 1  ON 133
 udH_16                 1.408911e-02 1 1  ON 134
 udH_17                -1.929639e-02 1 1  ON 135
 udH_18                 5.538441e-02 1 1  ON 136
 udH_19                 1.398974e-02 1 1  ON 137
 udH_20                -7.575303e-04 1 1  ON 138
 udH_21                -1.658325e-02 1 1  ON 139
 udH_22                -3.889476e-04 1 1  ON 140
 udH_23                -9.438263e-05 1 1  ON 141
 udH_24                 5.211197e-03 1 1  ON 142
 udH_25                -9.377987e-04 1 1  ON 143
  </optVariables>
   Restore the number of walkers to 1, removing 0 walkers.
</opt>
</optimization-report>
  QMC Execution time = 4.865 secs
  Total Execution time = 218.6 secs

=========================================================
  A new xml input file : opt.s050.cont.xml
