Rank =    0  Free Memory =  3632 MB
  Input file(s): C2H2_2s2p.in.xml 

=====================================================
                    QMCPACK 3.9.9

       (c) Copyright 2003-  QMCPACK developers

                    Please cite:
 J. Kim et al. J. Phys. Cond. Mat. 30 195901 (2018)
      https://doi.org/10.1088/1361-648X/aab9c3

  Git branch: develop
  Last git commit: 840aa1bcc0af4a7c94bd47fbcddb8f68a41f5fe9
  Last git commit date: Fri Jul 24 15:45:02 2020 -0400
  Last git commit subject: Merge pull request #2601 from jtkrogel/ed_fix
=====================================================
  Global options 

  Total number of MPI ranks = 1
  Number of MPI groups      = 1
  MPI group ID              = 0
  Number of ranks in group  = 1
  MPI ranks per node        = 1
  OMP 1st level threads     = 8
  OMP nested threading disabled or only 1 thread on the 2nd level

  Precision used in this calculation, see definitions in the manual:
  Base precision      = double
  Full precision      = double

  Structure-of-arrays (SoA) optimization enabled

  Input XML = C2H2_2s2p.in.xml

  Project = qmc.dump
  date    = 2021-02-08 18:20:02 EST
  host    = Haihan

 Random Number
 -------------
  Offset for the random number seeds based on time: 802

  Range of prime numbers to use as seeds over processors and threads = 6173-6247


 Particle Set 
 ------------
  Name: ion0
  All the species have the same mass 1
  Particle set size: 4

 Particle Set 
 ------------
  Name: e
  All the species have the same mass 1
  Particle set size: 10

 Wavefunction setup: 
 ------------------- 
  Name: psi0
  LCAO: SoaAtomicBasisSet<MultiQuintic,0>
Reading BasisSet from HDF5 file:qmc.dump.orbs.h5
<input node="atomicBasisSet" name="Gaussian" expandYlm="Gamess" angular="cartesian" elementType="C" normalized="no" type="Numerical" expM="0" />
  AO BasisSet for C
   Angular momentum expanded in cartesian functions x^lx y^ly z^lz according to Gamess
   Grid is created by the input paremters in h5
    Using log grid ri = 1e-06 rf = 100 npts = 1001
   R(n,l,m,s) 0 0 0 0
   R(n,l,m,s) 1 1 0 0
   R(n,l,m,s) 2 0 0 0
   R(n,l,m,s) 3 0 0 0
   R(n,l,m,s) 4 0 0 0
   R(n,l,m,s) 5 0 0 0
   R(n,l,m,s) 6 1 0 0
   R(n,l,m,s) 7 1 0 0
   R(n,l,m,s) 8 1 0 0
   R(n,l,m,s) 9 1 0 0
   R(n,l,m,s) 10 2 0 0
   R(n,l,m,s) 11 2 0 0
   R(n,l,m,s) 12 2 0 0
   R(n,l,m,s) 13 2 0 0
   R(n,l,m,s) 14 3 0 0
   R(n,l,m,s) 15 3 0 0
   R(n,l,m,s) 16 3 0 0
   R(n,l,m,s) 17 4 0 0
   R(n,l,m,s) 18 4 0 0
Expanding Ylm (angular function) according to Gamess using cartesian gaussians
Adding 1 cartesian gaussian orbitals for l= 0
Adding 3 cartesian gaussian orbitals for l= 1
Adding 1 cartesian gaussian orbitals for l= 0
Adding 1 cartesian gaussian orbitals for l= 0
Adding 1 cartesian gaussian orbitals for l= 0
Adding 1 cartesian gaussian orbitals for l= 0
Adding 3 cartesian gaussian orbitals for l= 1
Adding 3 cartesian gaussian orbitals for l= 1
Adding 3 cartesian gaussian orbitals for l= 1
Adding 3 cartesian gaussian orbitals for l= 1
Adding 6 cartesian gaussian orbitals for l= 2
Adding 6 cartesian gaussian orbitals for l= 2
Adding 6 cartesian gaussian orbitals for l= 2
Adding 6 cartesian gaussian orbitals for l= 2
Adding 10 cartesian gaussian orbitals for l= 3
Adding 10 cartesian gaussian orbitals for l= 3
Adding 10 cartesian gaussian orbitals for l= 3
Adding 15 cartesian gaussian orbitals for l= 4
Adding 15 cartesian gaussian orbitals for l= 4
  Setting cutoff radius 7.1924e+15

   Maximum Angular Momentum  = 4
   Number of Radial functors = 19
   Basis size                = 104

<input node="atomicBasisSet" name="Gaussian" expandYlm="Gamess" angular="cartesian" elementType="H" normalized="no" type="Numerical" expM="0" />
  AO BasisSet for H
   Angular momentum expanded in cartesian functions x^lx y^ly z^lz according to Gamess
   Grid is created by the input paremters in h5
    Using log grid ri = 1e-06 rf = 100 npts = 1001
   R(n,l,m,s) 0 0 0 0
   R(n,l,m,s) 1 0 0 0
   R(n,l,m,s) 2 0 0 0
   R(n,l,m,s) 3 0 0 0
   R(n,l,m,s) 4 0 0 0
   R(n,l,m,s) 5 1 0 0
   R(n,l,m,s) 6 1 0 0
   R(n,l,m,s) 7 1 0 0
   R(n,l,m,s) 8 1 0 0
   R(n,l,m,s) 9 2 0 0
   R(n,l,m,s) 10 2 0 0
   R(n,l,m,s) 11 2 0 0
   R(n,l,m,s) 12 3 0 0
   R(n,l,m,s) 13 3 0 0
Expanding Ylm (angular function) according to Gamess using cartesian gaussians
Adding 1 cartesian gaussian orbitals for l= 0
Adding 1 cartesian gaussian orbitals for l= 0
Adding 1 cartesian gaussian orbitals for l= 0
Adding 1 cartesian gaussian orbitals for l= 0
Adding 1 cartesian gaussian orbitals for l= 0
Adding 3 cartesian gaussian orbitals for l= 1
Adding 3 cartesian gaussian orbitals for l= 1
Adding 3 cartesian gaussian orbitals for l= 1
Adding 3 cartesian gaussian orbitals for l= 1
Adding 6 cartesian gaussian orbitals for l= 2
Adding 6 cartesian gaussian orbitals for l= 2
Adding 6 cartesian gaussian orbitals for l= 2
Adding 10 cartesian gaussian orbitals for l= 3
Adding 10 cartesian gaussian orbitals for l= 3
  Setting cutoff radius 9.95675e+11

   Maximum Angular Momentum  = 3
   Number of Radial functors = 14
   Basis size                = 55

  Created SPOSet builder named 'LCAOBSet' of type molecularorbital
Creating SPOSet in SlaterDetBuilder::put(xmlNodePtr cur).
spo_name = spo-up
  Building SPOSet 'spo-up' with 'LCAOBSet' basis set.
Creating SPOSet in SlaterDetBuilder::put(xmlNodePtr cur).
spo_name = spo-dn
  Building SPOSet 'spo-dn' with 'LCAOBSet' basis set.
Using Bryan's algorithm for MultiSlaterDeterminant expansion. 
Creating base determinant (up) for MSD expansion. 
Creating base determinant (down) for MSD expansion. 
Found Multideterminants in H5 File
Found determinant list. 
Reading CI expansion from HDF5:qmc.dump.orbs.h5
 Done reading CIs from H5!!
 Sorting unique CIs
 Done Sorting unique CIs
Found 68767 terms in the MSD expansion.
Norm of ci vector (sum of ci^2): 1
Found 4872 unique up determinants.
Found 4871 unique down determinants.
Number of terms in pairs array: 130
Number of terms in pairs array: 130
CI coefficients are not optimizable. 
  Added a fermionic WaveFunctionComponent SlaterDet

   Jastrow
   -------
    Name: J2   Type: Two-Body   Function: Bspline

    Radial function for species: u - u
     Number of parameters: 10
     Cusp: -0.25
     Cutoff radius: 10

     Name                        Value Type Recompute Use Index
     ---- ---------------------------- ---- --------- --- -----
     uu_0                 0.000000e+00    1         1  ON     0
     uu_1                 0.000000e+00    1         1  ON     1
     uu_2                 0.000000e+00    1         1  ON     2
     uu_3                 0.000000e+00    1         1  ON     3
     uu_4                 0.000000e+00    1         1  ON     4
     uu_5                 0.000000e+00    1         1  ON     5
     uu_6                 0.000000e+00    1         1  ON     6
     uu_7                 0.000000e+00    1         1  ON     7
     uu_8                 0.000000e+00    1         1  ON     8
     uu_9                 0.000000e+00    1         1  ON     9

    Radial function for species: u - d
     Number of parameters: 10
     Cusp: -0.5
     Cutoff radius: 10

     Name                        Value Type Recompute Use Index
     ---- ---------------------------- ---- --------- --- -----
     ud_0                 0.000000e+00    1         1  ON     0
     ud_1                 0.000000e+00    1         1  ON     1
     ud_2                 0.000000e+00    1         1  ON     2
     ud_3                 0.000000e+00    1         1  ON     3
     ud_4                 0.000000e+00    1         1  ON     4
     ud_5                 0.000000e+00    1         1  ON     5
     ud_6                 0.000000e+00    1         1  ON     6
     ud_7                 0.000000e+00    1         1  ON     7
     ud_8                 0.000000e+00    1         1  ON     8
     ud_9                 0.000000e+00    1         1  ON     9


   Jastrow
   -------
    Name: J1   Type: One-Body   Function: Bspline

    Radial function for element: C
     Number of parameters: 10
     Cusp: 0
     Cutoff radius: 10

     Name                        Value Type Recompute Use Index
     ---- ---------------------------- ---- --------- --- -----
     eC_0                 0.000000e+00    1         1  ON     0
     eC_1                 0.000000e+00    1         1  ON     1
     eC_2                 0.000000e+00    1         1  ON     2
     eC_3                 0.000000e+00    1         1  ON     3
     eC_4                 0.000000e+00    1         1  ON     4
     eC_5                 0.000000e+00    1         1  ON     5
     eC_6                 0.000000e+00    1         1  ON     6
     eC_7                 0.000000e+00    1         1  ON     7
     eC_8                 0.000000e+00    1         1  ON     8
     eC_9                 0.000000e+00    1         1  ON     9

    Radial function for element: H
     Number of parameters: 10
     Cusp: 0
     Cutoff radius: 10

     Name                        Value Type Recompute Use Index
     ---- ---------------------------- ---- --------- --- -----
     eH_0                 0.000000e+00    1         1  ON     0
     eH_1                 0.000000e+00    1         1  ON     1
     eH_2                 0.000000e+00    1         1  ON     2
     eH_3                 0.000000e+00    1         1  ON     3
     eH_4                 0.000000e+00    1         1  ON     4
     eH_5                 0.000000e+00    1         1  ON     5
     eH_6                 0.000000e+00    1         1  ON     6
     eH_7                 0.000000e+00    1         1  ON     7
     eH_8                 0.000000e+00    1         1  ON     8
     eH_9                 0.000000e+00    1         1  ON     9


   Jastrow
   -------
    Name: J3   Type: eeI   Function: polynomial

     Ion: C   electron-electron: u - u
      Number of parameters for e-e: 3, for e-I: 3
      Cutoff radius: 5

Expected 26 parameters, but found 0 in PolynomialFunctor3D.
        Name                        Value Type Recompute Use Index
      ------ ---------------------------- ---- --------- --- -----
       uuC_0                 0.000000e+00    1         1  ON     0
       uuC_1                 0.000000e+00    1         1  ON     1
       uuC_2                 0.000000e+00    1         1  ON     2
       uuC_3                 0.000000e+00    1         1  ON     3
       uuC_4                 0.000000e+00    1         1  ON     4
       uuC_5                 0.000000e+00    1         1  ON     5
       uuC_6                 0.000000e+00    1         1  ON     6
       uuC_7                 0.000000e+00    1         1  ON     7
       uuC_8                 0.000000e+00    1         1  ON     8
       uuC_9                 0.000000e+00    1         1  ON     9
      uuC_10                 0.000000e+00    1         1  ON    10
      uuC_11                 0.000000e+00    1         1  ON    11
      uuC_12                 0.000000e+00    1         1  ON    12
      uuC_13                 0.000000e+00    1         1  ON    13
      uuC_14                 0.000000e+00    1         1  ON    14
      uuC_15                 0.000000e+00    1         1  ON    15
      uuC_16                 0.000000e+00    1         1  ON    16
      uuC_17                 0.000000e+00    1         1  ON    17
      uuC_18                 0.000000e+00    1         1  ON    18
      uuC_19                 0.000000e+00    1         1  ON    19
      uuC_20                 0.000000e+00    1         1  ON    20
      uuC_21                 0.000000e+00    1         1  ON    21
      uuC_22                 0.000000e+00    1         1  ON    22
      uuC_23                 0.000000e+00    1         1  ON    23
      uuC_24                 0.000000e+00    1         1  ON    24
      uuC_25                 0.000000e+00    1         1  ON    25

     Ion: C   electron-electron: u - d
      Number of parameters for e-e: 3, for e-I: 3
      Cutoff radius: 5

Expected 26 parameters, but found 0 in PolynomialFunctor3D.
        Name                        Value Type Recompute Use Index
      ------ ---------------------------- ---- --------- --- -----
       udC_0                 0.000000e+00    1         1  ON     0
       udC_1                 0.000000e+00    1         1  ON     1
       udC_2                 0.000000e+00    1         1  ON     2
       udC_3                 0.000000e+00    1         1  ON     3
       udC_4                 0.000000e+00    1         1  ON     4
       udC_5                 0.000000e+00    1         1  ON     5
       udC_6                 0.000000e+00    1         1  ON     6
       udC_7                 0.000000e+00    1         1  ON     7
       udC_8                 0.000000e+00    1         1  ON     8
       udC_9                 0.000000e+00    1         1  ON     9
      udC_10                 0.000000e+00    1         1  ON    10
      udC_11                 0.000000e+00    1         1  ON    11
      udC_12                 0.000000e+00    1         1  ON    12
      udC_13                 0.000000e+00    1         1  ON    13
      udC_14                 0.000000e+00    1         1  ON    14
      udC_15                 0.000000e+00    1         1  ON    15
      udC_16                 0.000000e+00    1         1  ON    16
      udC_17                 0.000000e+00    1         1  ON    17
      udC_18                 0.000000e+00    1         1  ON    18
      udC_19                 0.000000e+00    1         1  ON    19
      udC_20                 0.000000e+00    1         1  ON    20
      udC_21                 0.000000e+00    1         1  ON    21
      udC_22                 0.000000e+00    1         1  ON    22
      udC_23                 0.000000e+00    1         1  ON    23
      udC_24                 0.000000e+00    1         1  ON    24
      udC_25                 0.000000e+00    1         1  ON    25

     Ion: H   electron-electron: u - u
      Number of parameters for e-e: 3, for e-I: 3
      Cutoff radius: 5

Expected 26 parameters, but found 0 in PolynomialFunctor3D.
        Name                        Value Type Recompute Use Index
      ------ ---------------------------- ---- --------- --- -----
       uuH_0                 0.000000e+00    1         1  ON     0
       uuH_1                 0.000000e+00    1         1  ON     1
       uuH_2                 0.000000e+00    1         1  ON     2
       uuH_3                 0.000000e+00    1         1  ON     3
       uuH_4                 0.000000e+00    1         1  ON     4
       uuH_5                 0.000000e+00    1         1  ON     5
       uuH_6                 0.000000e+00    1         1  ON     6
       uuH_7                 0.000000e+00    1         1  ON     7
       uuH_8                 0.000000e+00    1         1  ON     8
       uuH_9                 0.000000e+00    1         1  ON     9
      uuH_10                 0.000000e+00    1         1  ON    10
      uuH_11                 0.000000e+00    1         1  ON    11
      uuH_12                 0.000000e+00    1         1  ON    12
      uuH_13                 0.000000e+00    1         1  ON    13
      uuH_14                 0.000000e+00    1         1  ON    14
      uuH_15                 0.000000e+00    1         1  ON    15
      uuH_16                 0.000000e+00    1         1  ON    16
      uuH_17                 0.000000e+00    1         1  ON    17
      uuH_18                 0.000000e+00    1         1  ON    18
      uuH_19                 0.000000e+00    1         1  ON    19
      uuH_20                 0.000000e+00    1         1  ON    20
      uuH_21                 0.000000e+00    1         1  ON    21
      uuH_22                 0.000000e+00    1         1  ON    22
      uuH_23                 0.000000e+00    1         1  ON    23
      uuH_24                 0.000000e+00    1         1  ON    24
      uuH_25                 0.000000e+00    1         1  ON    25

     Ion: H   electron-electron: u - d
      Number of parameters for e-e: 3, for e-I: 3
      Cutoff radius: 5

Expected 26 parameters, but found 0 in PolynomialFunctor3D.
        Name                        Value Type Recompute Use Index
      ------ ---------------------------- ---- --------- --- -----
       udH_0                 0.000000e+00    1         1  ON     0
       udH_1                 0.000000e+00    1         1  ON     1
       udH_2                 0.000000e+00    1         1  ON     2
       udH_3                 0.000000e+00    1         1  ON     3
       udH_4                 0.000000e+00    1         1  ON     4
       udH_5                 0.000000e+00    1         1  ON     5
       udH_6                 0.000000e+00    1         1  ON     6
       udH_7                 0.000000e+00    1         1  ON     7
       udH_8                 0.000000e+00    1         1  ON     8
       udH_9                 0.000000e+00    1         1  ON     9
      udH_10                 0.000000e+00    1         1  ON    10
      udH_11                 0.000000e+00    1         1  ON    11
      udH_12                 0.000000e+00    1         1  ON    12
      udH_13                 0.000000e+00    1         1  ON    13
      udH_14                 0.000000e+00    1         1  ON    14
      udH_15                 0.000000e+00    1         1  ON    15
      udH_16                 0.000000e+00    1         1  ON    16
      udH_17                 0.000000e+00    1         1  ON    17
      udH_18                 0.000000e+00    1         1  ON    18
      udH_19                 0.000000e+00    1         1  ON    19
      udH_20                 0.000000e+00    1         1  ON    20
      udH_21                 0.000000e+00    1         1  ON    21
      udH_22                 0.000000e+00    1         1  ON    22
      udH_23                 0.000000e+00    1         1  ON    23
      udH_24                 0.000000e+00    1         1  ON    24
      udH_25                 0.000000e+00    1         1  ON    25

  QMCHamiltonian::addOperator Kinetic to H, physical Hamiltonian 
  QMCHamiltonian::addOperator ElecElec to H, physical Hamiltonian 
QMCHamiltonian::addOperatorType added type coulomb named ElecElec
  QMCHamiltonian::addOperator IonIon to H, physical Hamiltonian 
QMCHamiltonian::addOperatorType added type coulomb named IonIon

  ECPotential builder for pseudopotential 

  Adding pseudopotential for C
   Linear grid  ri=0 rf=10 npts = 10001
    ECPComponentBuilder::buildSemiLocalAndLocal 
    Assuming Hartree unit
   Number of angular momentum channels 2
   Maximum angular momentum channel 1
   Creating a Linear Grid Rmax=1.405
  Using global grid with delta = 0.001
   Making L=1 a local potential with a radial cutoff of 9.999
    Non-local pseudopotential parameters
    Maximum angular mementum = 0
    Number of non-local channels = 1
       l(0)=0
    Cutoff radius = 1.405
    Spherical grids and weights: 
                        1                 0                 0       0.08333333333
                       -1   1.224646799e-16                 0       0.08333333333
             0.4472135955       0.894427191                 0       0.08333333333
            -0.4472135955      0.7236067977      0.5257311121       0.08333333333
             0.4472135955      0.2763932023      0.8506508084       0.08333333333
            -0.4472135955     -0.2763932023      0.8506508084       0.08333333333
             0.4472135955     -0.7236067977      0.5257311121       0.08333333333
            -0.4472135955      -0.894427191   1.095357397e-16       0.08333333333
             0.4472135955     -0.7236067977     -0.5257311121       0.08333333333
            -0.4472135955     -0.2763932023     -0.8506508084       0.08333333333
             0.4472135955      0.2763932023     -0.8506508084       0.08333333333
            -0.4472135955      0.7236067977     -0.5257311121       0.08333333333
    Maximum cutoff radius 1.405

  Adding pseudopotential for H
   Linear grid  ri=0 rf=10 npts = 10001
    ECPComponentBuilder::buildSemiLocalAndLocal 
    Assuming Hartree unit
   Number of angular momentum channels 2
   Maximum angular momentum channel 1
   Creating a Linear Grid Rmax=1e-10
  Using global grid with delta = 0.001
   Making L=1 a local potential with a radial cutoff of 9.999
    Non-local pseudopotential parameters
    Maximum angular mementum = 0
    Number of non-local channels = 1
       l(0)=0
    Cutoff radius = 0.001
    Spherical grids and weights: 
                        1                 0                 0       0.08333333333
                       -1   1.224646799e-16                 0       0.08333333333
             0.4472135955       0.894427191                 0       0.08333333333
            -0.4472135955      0.7236067977      0.5257311121       0.08333333333
             0.4472135955      0.2763932023      0.8506508084       0.08333333333
            -0.4472135955     -0.2763932023      0.8506508084       0.08333333333
             0.4472135955     -0.7236067977      0.5257311121       0.08333333333
            -0.4472135955      -0.894427191   1.095357397e-16       0.08333333333
             0.4472135955     -0.7236067977     -0.5257311121       0.08333333333
            -0.4472135955     -0.2763932023     -0.8506508084       0.08333333333
             0.4472135955      0.2763932023     -0.8506508084       0.08333333333
            -0.4472135955      0.7236067977     -0.5257311121       0.08333333333
    Maximum cutoff radius 0.001
  QMCHamiltonian::addOperator LocalECP to H, physical Hamiltonian 

  Using NonLocalECP potential 
    Maximum grid on a sphere for NonLocalECPotential: 12
  QMCHamiltonian::addOperator NonLocalECP to H, physical Hamiltonian 
QMCHamiltonian::addOperatorType added type pseudo named PseudoPot

  QMCHamiltonian::add2WalkerProperty added
    5 to P::PropertyList 
    0 to P::Collectables 
    starting Index of the observables in P::PropertyList = 9
ParticleSetPool::randomize 1 ParticleSet.
<init source="ion0" target="e">
</init>
  Initialization Execution time = 0.1597 secs
=========================================================
 Summary of QMC systems 
=========================================================
ParticleSetPool has: 

  ParticleSet 'e' contains 10 particles :  u(5) d(5)

    u -3.2890393276e-01  5.9730580937e-01  1.5614982649e+00
    u -2.3961443293e-01 -7.1247742946e-01  1.4203926230e+00
    u  4.7445026928e-01  6.1158017748e-01 -9.2037831352e-01
    u -1.2376754526e-01 -5.0373447311e-01 -1.7500392274e+00
    u -5.8935781434e-01 -5.3196945397e-01  3.0210904517e+00
    d -4.6379455685e-01 -6.3141137919e-01  9.5750053395e-01
    d  5.2105621912e-01 -5.7298064071e-01  9.2194253265e-01
    d  6.2331634360e-01  2.3587128101e-01 -1.5852840717e+00
    d  3.1071796304e-01  2.2080925833e-01 -4.2886746126e-01
    d -6.9242019144e-01 -2.2446643456e-01 -2.8047877738e+00

  Distance table for dissimilar particles (A-B):
    source: ion0  target: e
    Using structure-of-arrays (SoA) data layout
    Distance computations use open boundary conditions in 3D.

  Distance table for similar particles (A-A):
    source/target: e
    Using structure-of-arrays (SoA) data layout
    Distance computations use open boundary conditions in 3D.


  ParticleSet 'ion0' contains 4 particles :  C(2) H(2)

    C  0.0000000000e+00  0.0000000000e+00  1.1362922364e+00
    C  0.0000000000e+00  0.0000000000e+00 -1.1362922364e+00
    H  0.0000000000e+00  0.0000000000e+00  3.1452599340e+00
    H  0.0000000000e+00  0.0000000000e+00 -3.1452599340e+00

  Distance table for similar particles (A-A):
    source/target: ion0
    Using structure-of-arrays (SoA) data layout
    Distance computations use open boundary conditions in 3D.


  Hamiltonian h0
  Kinetic         Kinetic energy
  ElecElec        CoulombAB source=e

  IonIon          CoulombAA source/target ion0

  LocalECP        LocalECPotential: ion0
  NonLocalECP     NonLocalECPotential: ion0


=========================================================
  Start VMC
  File Root qmc.dump.s000 append = no 
=========================================================
Resetting walkers
  Adding 8 walkers to 0 existing sets
  Total number of walkers: 8.0000000000e+00
  Total weight: 8.0000000000e+00
  Resetting Properties of the walkers 1 x 14

<vmc function="put">
  qmc_counter=0  my_counter=0
  time step      = 5.0000000000e-01
  blocks         = 10
  steps          = 1
  substeps       = 5
  current        = 0
  target samples = 8.0000000000e+00
  walkers/mpi    = 8

  stepsbetweensamples = 10
  SpinMoves      = no
<parameter name="blocks" condition="int">10</parameter>
<parameter name="blocks_between_recompute" condition="int">0</parameter>
<parameter name="check_properties" condition="int">100</parameter>
<parameter name="checkproperties" condition="int">100</parameter>
<parameter name="current" condition="int">0</parameter>
<parameter name="dmcwalkersperthread" condition="real">1.0000000000e+00</parameter>
<parameter name="maxcpusecs" condition="real">3.6000000000e+05</parameter>
<parameter name="record_configs" condition="int">0</parameter>
<parameter name="record_walkers" condition="int">10</parameter>
<parameter name="recordconfigs" condition="int">0</parameter>
<parameter name="recordwalkers" condition="int">10</parameter>
<parameter name="rewind" condition="int">0</parameter>
<parameter name="samples" condition="real">8.0000000000e+00</parameter>
<parameter name="samplesperthread" condition="real">1.0000000000e+00</parameter>
<parameter name="spinmass" condition="double">1.0000000000e+00</parameter>
<parameter name="spinmoves" condition="string">no</parameter>
<parameter name="steps" condition="int">1</parameter>
<parameter name="stepsbetweensamples" condition="int">10</parameter>
<parameter name="store_configs" condition="int">0</parameter>
<parameter name="storeconfigs" condition="int">0</parameter>
<parameter name="sub_steps" condition="int">5</parameter>
<parameter name="substeps" condition="int">5</parameter>
<parameter name="tau" condition="au">5.0000000000e-01</parameter>
<parameter name="time_step" condition="au">5.0000000000e-01</parameter>
<parameter name="timestep" condition="au">5.0000000000e-01</parameter>
<parameter name="use_drift" condition="string">no</parameter>
<parameter name="usedrift" condition="string">no</parameter>
<parameter name="walkers" condition="int">8</parameter>
<parameter name="warmup_steps" condition="int">20</parameter>
<parameter name="warmupsteps" condition="int">20</parameter>
  DumpConfig==false Nothing (configurations, state) will be saved.
  Walker Samples are dumped every 10 steps.
</vmc>
  Set drift_modifier UNR parameter a = 1.0000000000e+00
  CloneManager::makeClones makes 8 clones for W/Psi/H.
  Cloning methods for both Psi and H are used
===== Memory Usage before cloning =====
Available memory on node 0, free + buffers : 3597 MB
Memory footprint by rank 0 on node 0       : 45 MB
==================================================
===== Memory Usage after cloning =====
Available memory on node 0, free + buffers : 3561 MB
Memory footprint by rank 0 on node 0       : 80 MB
==================================================
  Initial partition of walkers 0 1 2 3 4 5 6 7 8 

  Using Particle by Particle moves
  Walker moves without drift
  Total Sample Size   =8
  Walker distribution on root = 0 1 2 3 4 5 6 7 8 
  Using Locality Approximation
===== Memory Usage after the buffer registration =====
Available memory on node 0, free + buffers : 3545 MB
Memory footprint by rank 0 on node 0       : 94 MB
==================================================
  Anonymous Buffer size per walker : 1755880 Bytes.
MEMORY increase 13 MB VMC::resetRun
====================================================
  SimpleFixedNodeBranch::finalize after a VMC block
    QMC counter        = 0
    time step          = 0.5
    reference energy   = -11.9628
    reference variance = 0.423985
====================================================
  QMC Execution time = 1.4537e+00 secs
Loop execution max-interations = 3
BRANCH resetRun
 SimpleFixedNodeBranch::resetRun detected changes in <parameter>'s 
 BranchMode : 0000001100 0000001100
 iParam (old): 20                1                 0                 8                 8                 8                 1                 0                 
 iParam (new): 20                1                 0                 8                 8                 8                 1                 0                 
 vParam (old): 5.0000000000e-01  5.0000000000e-01  -1.1962803559e+01 -1.1962803559e+01 1.0000000000e+00  1.0000000000e+00  1.0000000000e+00  1.0000000000e+00  4.2398451020e-01  -1.1962803559e+01 1.0000000000e+00  1.0000000000e+00  1.0000000000e+01  1.0000000000e+00  1.0000000000e+00  1.0000000000e+00  1.0000000000e+00  
 vParam (new): 1.5000000000e+00  5.0000000000e-01  -1.1962803559e+01 -1.1962803559e+01 1.0000000000e+00  1.0000000000e+00  1.0000000000e+00  1.0000000000e+00  4.2398451020e-01  -1.1962803559e+01 1.0000000000e+00  1.0000000000e+00  1.0000000000e+01  1.0000000000e+00  1.0000000000e+00  1.0000000000e+00  1.0000000000e+00  

=========================================================
  Start QMCFixedSampleLinearOptimize
  File Root qmc.dump.s001 append = no 
=========================================================
  Skip QMCDriver::putQMCInfo 
  Resetting Properties of the walkers 1 x 14

=========================================================
  Start VMC
  File Root qmc.dump.s001 append = no 
=========================================================
Resetting walkers
  Using the current 8 walkers.
  Total number of walkers: 8.0000000000e+00
  Total weight: 8.0000000000e+00
  Resetting Properties of the walkers 1 x 14

<vmc function="put">
  qmc_counter=0  my_counter=0
  time step      = 1.5000000000e+00
  blocks         = 100
  steps          = 20
  substeps       = 2
  current        = 0
  target samples = 2.0000000000e+03
  walkers/mpi    = 8

  stepsbetweensamples = 8
  SpinMoves      = no
<parameter name="blocks" condition="int">100</parameter>
<parameter name="blocks_between_recompute" condition="int">0</parameter>
<parameter name="check_properties" condition="int">100</parameter>
<parameter name="checkproperties" condition="int">100</parameter>
<parameter name="current" condition="int">0</parameter>
<parameter name="dmcwalkersperthread" condition="real">2.5000000000e+02</parameter>
<parameter name="maxcpusecs" condition="real">3.6000000000e+05</parameter>
<parameter name="record_configs" condition="int">0</parameter>
<parameter name="record_walkers" condition="int">8</parameter>
<parameter name="recordconfigs" condition="int">0</parameter>
<parameter name="recordwalkers" condition="int">8</parameter>
<parameter name="rewind" condition="int">0</parameter>
<parameter name="samples" condition="real">2.0000000000e+03</parameter>
<parameter name="samplesperthread" condition="real">2.5000000000e+02</parameter>
<parameter name="spinmass" condition="double">1.0000000000e+00</parameter>
<parameter name="spinmoves" condition="string">no</parameter>
<parameter name="steps" condition="int">20</parameter>
<parameter name="stepsbetweensamples" condition="int">8</parameter>
<parameter name="store_configs" condition="int">0</parameter>
<parameter name="storeconfigs" condition="int">0</parameter>
<parameter name="sub_steps" condition="int">2</parameter>
<parameter name="substeps" condition="int">2</parameter>
<parameter name="tau" condition="au">1.5000000000e+00</parameter>
<parameter name="time_step" condition="au">1.5000000000e+00</parameter>
<parameter name="timestep" condition="au">1.5000000000e+00</parameter>
<parameter name="use_drift" condition="string">yes</parameter>
<parameter name="usedrift" condition="string">yes</parameter>
<parameter name="walkers" condition="int">8</parameter>
<parameter name="warmup_steps" condition="int">0</parameter>
<parameter name="warmupsteps" condition="int">0</parameter>
  DumpConfig==false Nothing (configurations, state) will be saved.
  Walker Samples are dumped every 8 steps.
</vmc>
    Restarting, cummulative properties:
      energy     = -1.1962803559e+01
      variance   = 0.0000000000e+00
      r2accepted = 1.0000000000e-10
      r2proposed = 1.0000000000e-10
  Set drift_modifier UNR parameter a = 1.0000000000e+00
  Adding a default LocalEnergyEstimator for the MainEstimator 
 Using QMCCostFunction::QMCCostFunction
  Set drift_modifier UNR parameter a = 1.0000000000e+00
<optimization-report>
<vmc stage="main" blocks="100">
  Cannot make clones again. Use existing 8 clones
  Initial partition of walkers 0 1 2 3 4 5 6 7 8 

  Using Particle by Particle moves
  Walker moves with drift
  Total Sample Size   =2000
  Walker distribution on root = 0 1 2 3 4 5 6 7 8 
  Using Locality Approximation
===== Memory Usage after the buffer registration =====
Available memory on node 0, free + buffers : 3544 MB
Memory footprint by rank 0 on node 0       : 94 MB
==================================================
  Anonymous Buffer size per walker : 1755880 Bytes.
MEMORY increase 13 MB VMC::resetRun
====================================================
  SimpleFixedNodeBranch::finalize after a VMC block
    QMC counter        = 1
    time step          = 1.5
    reference energy   = -11.9294
    reference variance = 1.60957
====================================================
  Execution time = 1.9699e+02
</vmc>
<opt stage="setup">
  <log>
   Reading configurations from h5FileRoot qmc.dump.s001
  QMCCostFunction is created with 8 threads.
  Using Nonlocal PP in Opt: NonLocalECP
   Number of samples loaded to each thread : 250 250 250 250 250 250 250 250 
  VMC Eavg = -1.2273e+01
  VMC Evar = 1.0161e+00
  Total weights = 2.0000e+03
  Execution time = 9.9817e+00
  </log>
</opt>
<opt stage="main" walkers="2000">
  <log>

*****************************************
Building overlap and Hamiltonian matrices
*****************************************

Among totally 144 optimized parameters, largest LM parameter change : 3.0113e-01 at parameter 10

******************************************************************************
Init Cost =   1.0161e+00    New Cost =   4.2616e-01  Delta Cost =  -5.8998e-01
******************************************************************************

The new set of parameters is valid. Updating the trial wave function!

*****************************************************************************
Applying the update for shift_i =   1.0000e-02     and shift_s =   2.5000e-01
*****************************************************************************
  Execution time = 2.1687e+02
  </log>
  <optVariables href="qmc.dump.s001.opt.xml">
  uu_0                 1.789618e-01 1 1  ON 0
  uu_1                 8.939536e-02 1 1  ON 1
  uu_2                 1.378365e-02 1 1  ON 2
  uu_3                -2.860275e-02 1 1  ON 3
  uu_4                -4.796676e-02 1 1  ON 4
  uu_5                -6.402219e-02 1 1  ON 5
  uu_6                -6.518540e-02 1 1  ON 6
  uu_7                -5.870958e-02 1 1  ON 7
  uu_8                -3.193196e-02 1 1  ON 8
  uu_9                -2.088185e-02 1 1  ON 9
  ud_0                 3.011338e-01 1 1  ON 10
  ud_1                 9.845969e-02 1 1  ON 11
  ud_2                -9.664400e-03 1 1  ON 12
  ud_3                -4.396583e-02 1 1  ON 13
  ud_4                -6.676986e-02 1 1  ON 14
  ud_5                -7.917398e-02 1 1  ON 15
  ud_6                -7.624112e-02 1 1  ON 16
  ud_7                -7.422600e-02 1 1  ON 17
  ud_8                -4.926123e-02 1 1  ON 18
  ud_9                -3.508552e-02 1 1  ON 19
  eC_0                -2.945823e-01 1 1  ON 20
  eC_1                -2.540794e-01 1 1  ON 21
  eC_2                -5.610512e-02 1 1  ON 22
  eC_3                 4.307169e-02 1 1  ON 23
  eC_4                 8.690088e-02 1 1  ON 24
  eC_5                 8.972996e-02 1 1  ON 25
  eC_6                 1.144447e-01 1 1  ON 26
  eC_7                 1.080430e-01 1 1  ON 27
  eC_8                 1.012013e-01 1 1  ON 28
  eC_9                 5.071091e-02 1 1  ON 29
  eH_0                -1.099635e-01 1 1  ON 30
  eH_1                -9.171092e-02 1 1  ON 31
  eH_2                -7.722962e-02 1 1  ON 32
  eH_3                -4.372814e-02 1 1  ON 33
  eH_4                -1.675726e-02 1 1  ON 34
  eH_5                 1.810668e-02 1 1  ON 35
  eH_6                 3.223295e-02 1 1  ON 36
  eH_7                 5.000246e-02 1 1  ON 37
  eH_8                 6.181890e-02 1 1  ON 38
  eH_9                 4.321618e-02 1 1  ON 39
 uuC_0                -3.966175e-03 1 1  ON 40
 uuC_1                 2.191424e-04 1 1  ON 41
 uuC_2                 5.267320e-03 1 1  ON 42
 uuC_3                 3.409933e-03 1 1  ON 43
 uuC_4                 4.357969e-04 1 1  ON 44
 uuC_5                 2.171652e-05 1 1  ON 45
 uuC_6                 6.529445e-03 1 1  ON 46
 uuC_7                -4.854720e-03 1 1  ON 47
 uuC_8                 8.164242e-03 1 1  ON 48
 uuC_9                -1.173672e-03 1 1  ON 49
uuC_10                 2.958156e-03 1 1  ON 50
uuC_11                -2.369266e-03 1 1  ON 51
uuC_12                -6.337437e-03 1 1  ON 52
uuC_13                -8.930750e-04 1 1  ON 53
uuC_14                 5.257137e-03 1 1  ON 54
uuC_15                 2.641339e-04 1 1  ON 55
uuC_16                 1.096856e-03 1 1  ON 56
uuC_17                 6.688460e-03 1 1  ON 57
uuC_18                -2.862230e-03 1 1  ON 58
uuC_19                 7.939990e-03 1 1  ON 59
uuC_20                -3.646270e-03 1 1  ON 60
uuC_21                -1.603107e-03 1 1  ON 61
uuC_22                -1.287906e-03 1 1  ON 62
uuC_23                 5.230749e-03 1 1  ON 63
uuC_24                -6.723044e-04 1 1  ON 64
uuC_25                 5.350040e-04 1 1  ON 65
 udC_0                -1.167928e-03 1 1  ON 66
 udC_1                 5.800490e-04 1 1  ON 67
 udC_2                 5.379976e-03 1 1  ON 68
 udC_3                 2.332696e-03 1 1  ON 69
 udC_4                -5.847079e-04 1 1  ON 70
 udC_5                -2.971553e-04 1 1  ON 71
 udC_6                 5.460175e-03 1 1  ON 72
 udC_7                -4.850263e-03 1 1  ON 73
 udC_8                 1.087002e-02 1 1  ON 74
 udC_9                -3.509221e-03 1 1  ON 75
udC_10                 2.897954e-03 1 1  ON 76
udC_11                -9.617375e-03 1 1  ON 77
udC_12                -5.282674e-03 1 1  ON 78
udC_13                 2.603972e-03 1 1  ON 79
udC_14                 5.264361e-03 1 1  ON 80
udC_15                -1.595594e-04 1 1  ON 81
udC_16                 1.170576e-02 1 1  ON 82
udC_17                 8.612068e-04 1 1  ON 83
udC_18                 1.191178e-02 1 1  ON 84
udC_19                 1.570995e-03 1 1  ON 85
udC_20                -9.641035e-03 1 1  ON 86
udC_21                -3.906138e-03 1 1  ON 87
udC_22                 9.691688e-04 1 1  ON 88
udC_23                 6.442335e-03 1 1  ON 89
udC_24                 1.029898e-04 1 1  ON 90
udC_25                -5.017573e-04 1 1  ON 91
 uuH_0                -7.735966e-03 1 1  ON 92
 uuH_1                -3.307689e-03 1 1  ON 93
 uuH_2                 4.769572e-03 1 1  ON 94
 uuH_3                 1.735068e-03 1 1  ON 95
 uuH_4                -1.533332e-03 1 1  ON 96
 uuH_5                 8.625539e-04 1 1  ON 97
 uuH_6                 1.817535e-03 1 1  ON 98
 uuH_7                -2.952148e-03 1 1  ON 99
 uuH_8                 4.244666e-03 1 1  ON 100
 uuH_9                 4.486635e-03 1 1  ON 101
uuH_10                -1.719382e-03 1 1  ON 102
uuH_11                 4.775838e-03 1 1  ON 103
uuH_12                 1.834236e-03 1 1  ON 104
uuH_13                 1.722345e-03 1 1  ON 105
uuH_14                -3.517018e-03 1 1  ON 106
uuH_15                -3.249731e-06 1 1  ON 107
uuH_16                -2.615143e-03 1 1  ON 108
uuH_17                 6.710652e-03 1 1  ON 109
uuH_18                 5.835732e-03 1 1  ON 110
uuH_19                -1.132919e-02 1 1  ON 111
uuH_20                -7.670621e-03 1 1  ON 112
uuH_21                -1.654055e-03 1 1  ON 113
uuH_22                 3.795128e-03 1 1  ON 114
uuH_23                 6.616622e-03 1 1  ON 115
uuH_24                 4.932501e-05 1 1  ON 116
uuH_25                -1.323936e-03 1 1  ON 117
 udH_0                -2.114903e-04 1 1  ON 118
 udH_1                -2.150254e-03 1 1  ON 119
 udH_2                -4.031804e-03 1 1  ON 120
 udH_3                 1.368895e-03 1 1  ON 121
 udH_4                 1.155987e-03 1 1  ON 122
 udH_5                 2.617069e-04 1 1  ON 123
 udH_6                -6.095321e-03 1 1  ON 124
 udH_7                -8.329703e-03 1 1  ON 125
 udH_8                -1.846751e-04 1 1  ON 126
 udH_9                 6.044163e-03 1 1  ON 127
udH_10                 1.816913e-03 1 1  ON 128
udH_11                 3.192258e-03 1 1  ON 129
udH_12                -6.569683e-03 1 1  ON 130
udH_13                 5.811010e-05 1 1  ON 131
udH_14                 5.804410e-03 1 1  ON 132
udH_15                 2.200598e-04 1 1  ON 133
udH_16                -4.129931e-03 1 1  ON 134
udH_17                 4.383364e-03 1 1  ON 135
udH_18                 3.191237e-03 1 1  ON 136
udH_19                 9.185661e-03 1 1  ON 137
udH_20                -8.312329e-03 1 1  ON 138
udH_21                -4.202746e-03 1 1  ON 139
udH_22                -1.294621e-03 1 1  ON 140
udH_23                 1.170165e-02 1 1  ON 141
udH_24                -1.131501e-03 1 1  ON 142
udH_25                 7.639420e-04 1 1  ON 143
  </optVariables>
   Restore the number of walkers to 8, removing 0 walkers.
</opt>
</optimization-report>
  QMC Execution time = 216.9 secs

=========================================================
  Start QMCFixedSampleLinearOptimize
  File Root qmc.dump.s002 append = no 
=========================================================
  Skip QMCDriver::putQMCInfo 
  Resetting Properties of the walkers 1 x 14

=========================================================
  Start VMC
  File Root qmc.dump.s002 append = no 
=========================================================
Using existing walkers 
  Resetting Properties of the walkers 1 x 14

<vmc function="put">
  qmc_counter=1  my_counter=0
  time step      = 1.5
  blocks         = 100
  steps          = 20
  substeps       = 2
  current        = 0
  target samples = 2000
  walkers/mpi    = 8

  stepsbetweensamples = 8
  SpinMoves      = no
<parameter name="blocks" condition="int">100</parameter>
<parameter name="blocks_between_recompute" condition="int">0</parameter>
<parameter name="check_properties" condition="int">100</parameter>
<parameter name="checkproperties" condition="int">100</parameter>
<parameter name="current" condition="int">0</parameter>
<parameter name="dmcwalkersperthread" condition="real">250</parameter>
<parameter name="maxcpusecs" condition="real">3.6e+05</parameter>
<parameter name="record_configs" condition="int">0</parameter>
<parameter name="record_walkers" condition="int">8</parameter>
<parameter name="recordconfigs" condition="int">0</parameter>
<parameter name="recordwalkers" condition="int">8</parameter>
<parameter name="rewind" condition="int">0</parameter>
<parameter name="samples" condition="real">2000</parameter>
<parameter name="samplesperthread" condition="real">250</parameter>
<parameter name="spinmass" condition="double">1</parameter>
<parameter name="spinmoves" condition="string">no</parameter>
<parameter name="steps" condition="int">20</parameter>
<parameter name="stepsbetweensamples" condition="int">8</parameter>
<parameter name="store_configs" condition="int">0</parameter>
<parameter name="storeconfigs" condition="int">0</parameter>
<parameter name="sub_steps" condition="int">2</parameter>
<parameter name="substeps" condition="int">2</parameter>
<parameter name="tau" condition="au">1.5</parameter>
<parameter name="time_step" condition="au">1.5</parameter>
<parameter name="timestep" condition="au">1.5</parameter>
<parameter name="use_drift" condition="string">yes</parameter>
<parameter name="usedrift" condition="string">yes</parameter>
<parameter name="walkers" condition="int">8</parameter>
<parameter name="warmup_steps" condition="int">0</parameter>
<parameter name="warmupsteps" condition="int">0</parameter>
  DumpConfig==false Nothing (configurations, state) will be saved.
  Walker Samples are dumped every 8 steps.
</vmc>
    Restarting, cummulative properties:
      energy     = -11.95
      variance   = 0
      r2accepted = 1e-10
      r2proposed = 1e-10
  Set drift_modifier UNR parameter a = 1
  Adding a default LocalEnergyEstimator for the MainEstimator 
 Using QMCCostFunction::QMCCostFunction
  Set drift_modifier UNR parameter a = 1.0000e+00
<optimization-report>
<vmc stage="main" blocks="100">
  Cannot make clones again. Use existing 8 clones
  Initial partition of walkers 0 1 2 3 4 5 6 7 8 

  Using Particle by Particle moves
  Walker moves with drift
  Total Sample Size   =2000
  Walker distribution on root = 0 1 2 3 4 5 6 7 8 
  Using Locality Approximation
===== Memory Usage after the buffer registration =====
Available memory on node 0, free + buffers : 3533 MB
Memory footprint by rank 0 on node 0       : 104 MB
==================================================
  Anonymous Buffer size per walker : 1755880 Bytes.
MEMORY increase 13 MB VMC::resetRun
====================================================
  SimpleFixedNodeBranch::finalize after a VMC block
    QMC counter        = 2
    time step          = 1.5
    reference energy   = -12.3676
    reference variance = 0.0531332
====================================================
  Execution time = 2.0229e+02
</vmc>
<opt stage="setup">
  <log>
   Reading configurations from h5FileRoot qmc.dump.s002
  QMCCostFunction is created with 8 threads.
  Using Nonlocal PP in Opt: NonLocalECP
   Number of samples loaded to each thread : 250 250 250 250 250 250 250 250 
  VMC Eavg = -1.2415e+01
  VMC Evar = 2.2085e-01
  Total weights = 2.0000e+03
  Execution time = 1.0020e+01
  </log>
</opt>
<opt stage="main" walkers="2000">
  <log>

*****************************************
Building overlap and Hamiltonian matrices
*****************************************

Among totally 144 optimized parameters, largest LM parameter change : 2.1428e-01 at parameter 20

******************************************************************************
Init Cost =   2.2085e-01    New Cost =   1.5636e-01  Delta Cost =  -6.4497e-02
******************************************************************************

The new set of parameters is valid. Updating the trial wave function!

*****************************************************************************
Applying the update for shift_i =   1.0000e-02     and shift_s =   6.2500e-02
*****************************************************************************
  Execution time = 2.2224e+02
  </log>
  <optVariables href="qmc.dump.s002.opt.xml">
  uu_0                 2.640693e-01 1 1  ON 0
  uu_1                 1.315823e-01 1 1  ON 1
  uu_2                 2.544612e-02 1 1  ON 2
  uu_3                -3.496876e-02 1 1  ON 3
  uu_4                -7.147621e-02 1 1  ON 4
  uu_5                -9.323702e-02 1 1  ON 5
  uu_6                -1.085590e-01 1 1  ON 6
  uu_7                -1.060571e-01 1 1  ON 7
  uu_8                -7.595185e-02 1 1  ON 8
  uu_9                -3.937523e-02 1 1  ON 9
  ud_0                 4.174856e-01 1 1  ON 10
  ud_1                 1.158494e-01 1 1  ON 11
  ud_2                -3.526284e-02 1 1  ON 12
  ud_3                -9.432624e-02 1 1  ON 13
  ud_4                -1.332609e-01 1 1  ON 14
  ud_5                -1.530980e-01 1 1  ON 15
  ud_6                -1.595899e-01 1 1  ON 16
  ud_7                -1.493904e-01 1 1  ON 17
  ud_8                -1.380603e-01 1 1  ON 18
  ud_9                -7.376780e-02 1 1  ON 19
  eC_0                -5.088628e-01 1 1  ON 20
  eC_1                -4.353782e-01 1 1  ON 21
  eC_2                -1.401400e-01 1 1  ON 22
  eC_3                 1.389869e-02 1 1  ON 23
  eC_4                 1.126698e-01 1 1  ON 24
  eC_5                 1.774809e-01 1 1  ON 25
  eC_6                 2.263356e-01 1 1  ON 26
  eC_7                 1.616254e-01 1 1  ON 27
  eC_8                 1.893959e-01 1 1  ON 28
  eC_9                 1.256632e-01 1 1  ON 29
  eH_0                -1.888812e-01 1 1  ON 30
  eH_1                -1.715400e-01 1 1  ON 31
  eH_2                -1.307218e-01 1 1  ON 32
  eH_3                -9.136038e-02 1 1  ON 33
  eH_4                -3.587154e-02 1 1  ON 34
  eH_5                 1.248608e-02 1 1  ON 35
  eH_6                 6.327240e-02 1 1  ON 36
  eH_7                 8.040932e-02 1 1  ON 37
  eH_8                 7.454983e-02 1 1  ON 38
  eH_9                 5.886090e-02 1 1  ON 39
 uuC_0                -7.602397e-04 1 1  ON 40
 uuC_1                 4.094808e-03 1 1  ON 41
 uuC_2                 8.824127e-03 1 1  ON 42
 uuC_3                -1.895558e-03 1 1  ON 43
 uuC_4                 8.442783e-04 1 1  ON 44
 uuC_5                -1.615172e-04 1 1  ON 45
 uuC_6                 8.855244e-03 1 1  ON 46
 uuC_7                -9.521735e-03 1 1  ON 47
 uuC_8                 1.547799e-02 1 1  ON 48
 uuC_9                -3.709288e-03 1 1  ON 49
uuC_10                 1.974227e-03 1 1  ON 50
uuC_11                -8.105750e-03 1 1  ON 51
uuC_12                -2.249943e-03 1 1  ON 52
uuC_13                 5.888646e-03 1 1  ON 53
uuC_14                 2.568180e-03 1 1  ON 54
uuC_15                -3.537219e-04 1 1  ON 55
uuC_16                -7.042737e-03 1 1  ON 56
uuC_17                 9.325364e-03 1 1  ON 57
uuC_18                 6.053389e-03 1 1  ON 58
uuC_19                -4.677586e-03 1 1  ON 59
uuC_20                 1.024489e-03 1 1  ON 60
uuC_21                -2.628515e-03 1 1  ON 61
uuC_22                 2.597442e-03 1 1  ON 62
uuC_23                -1.096544e-04 1 1  ON 63
uuC_24                 1.179720e-03 1 1  ON 64
uuC_25                -1.310345e-03 1 1  ON 65
 udC_0                -5.208492e-03 1 1  ON 66
 udC_1                 1.787884e-03 1 1  ON 67
 udC_2                 1.381993e-02 1 1  ON 68
 udC_3                 1.584714e-04 1 1  ON 69
 udC_4                -6.047142e-03 1 1  ON 70
 udC_5                -4.355109e-04 1 1  ON 71
 udC_6                 1.007824e-02 1 1  ON 72
 udC_7                 3.095028e-03 1 1  ON 73
 udC_8                 2.550833e-02 1 1  ON 74
 udC_9                -1.688431e-03 1 1  ON 75
udC_10                -1.034750e-03 1 1  ON 76
udC_11                -1.479130e-02 1 1  ON 77
udC_12                -1.400379e-02 1 1  ON 78
udC_13                 1.545532e-03 1 1  ON 79
udC_14                 1.209245e-02 1 1  ON 80
udC_15                 1.201581e-04 1 1  ON 81
udC_16                 6.089039e-03 1 1  ON 82
udC_17                 9.905685e-03 1 1  ON 83
udC_18                 2.917782e-03 1 1  ON 84
udC_19                 9.186455e-03 1 1  ON 85
udC_20                -6.781083e-03 1 1  ON 86
udC_21                -2.021332e-03 1 1  ON 87
udC_22                -6.631304e-04 1 1  ON 88
udC_23                 5.412958e-03 1 1  ON 89
udC_24                -1.165461e-03 1 1  ON 90
udC_25                 1.561523e-04 1 1  ON 91
 uuH_0                -7.579421e-03 1 1  ON 92
 uuH_1                -1.890084e-03 1 1  ON 93
 uuH_2                 1.528606e-03 1 1  ON 94
 uuH_3                -6.269067e-03 1 1  ON 95
 uuH_4                -3.732453e-03 1 1  ON 96
 uuH_5                 1.207789e-03 1 1  ON 97
 uuH_6                -3.240625e-03 1 1  ON 98
 uuH_7                 3.140942e-03 1 1  ON 99
 uuH_8                 5.442992e-03 1 1  ON 100
 uuH_9                 8.790041e-03 1 1  ON 101
uuH_10                -9.014180e-03 1 1  ON 102
uuH_11                 7.096014e-03 1 1  ON 103
uuH_12                -7.363847e-03 1 1  ON 104
uuH_13                -1.769883e-03 1 1  ON 105
uuH_14                 2.250621e-03 1 1  ON 106
uuH_15                 4.965106e-04 1 1  ON 107
uuH_16                 2.131556e-03 1 1  ON 108
uuH_17                 1.233623e-03 1 1  ON 109
uuH_18                 6.428343e-03 1 1  ON 110
uuH_19                 2.040700e-03 1 1  ON 111
uuH_20                -1.045467e-02 1 1  ON 112
uuH_21                -1.781504e-03 1 1  ON 113
uuH_22                 9.493637e-04 1 1  ON 114
uuH_23                 1.290917e-02 1 1  ON 115
uuH_24                -3.462584e-03 1 1  ON 116
uuH_25                 1.634473e-04 1 1  ON 117
 udH_0                -4.522976e-04 1 1  ON 118
 udH_1                -2.626735e-03 1 1  ON 119
 udH_2                 9.059113e-04 1 1  ON 120
 udH_3                 1.058867e-03 1 1  ON 121
 udH_4                -1.551323e-03 1 1  ON 122
 udH_5                 1.423566e-04 1 1  ON 123
 udH_6                -5.431381e-03 1 1  ON 124
 udH_7                 6.092445e-03 1 1  ON 125
 udH_8                 6.996607e-03 1 1  ON 126
 udH_9                 3.616128e-03 1 1  ON 127
udH_10                 1.447296e-03 1 1  ON 128
udH_11                -6.185795e-03 1 1  ON 129
udH_12                -7.890761e-03 1 1  ON 130
udH_13                -8.356482e-04 1 1  ON 131
udH_14                 9.857484e-03 1 1  ON 132
udH_15                -4.523320e-04 1 1  ON 133
udH_16                -1.738297e-03 1 1  ON 134
udH_17                 9.390010e-03 1 1  ON 135
udH_18                -7.092209e-03 1 1  ON 136
udH_19                 1.168043e-02 1 1  ON 137
udH_20                -3.793765e-03 1 1  ON 138
udH_21                -1.006350e-03 1 1  ON 139
udH_22                -1.904409e-03 1 1  ON 140
udH_23                 5.739860e-03 1 1  ON 141
udH_24                -1.759161e-03 1 1  ON 142
udH_25                 8.254255e-04 1 1  ON 143
  </optVariables>
   Restore the number of walkers to 8, removing 0 walkers.
</opt>
</optimization-report>
  QMC Execution time = 222.2 secs

=========================================================
  Start QMCFixedSampleLinearOptimize
  File Root qmc.dump.s003 append = no 
=========================================================
  Skip QMCDriver::putQMCInfo 
  Resetting Properties of the walkers 1 x 14

=========================================================
  Start VMC
  File Root qmc.dump.s003 append = no 
=========================================================
Using existing walkers 
  Resetting Properties of the walkers 1 x 14

<vmc function="put">
  qmc_counter=2  my_counter=0
  time step      = 1.5
  blocks         = 100
  steps          = 20
  substeps       = 2
  current        = 0
  target samples = 2000
  walkers/mpi    = 8

  stepsbetweensamples = 8
  SpinMoves      = no
<parameter name="blocks" condition="int">100</parameter>
<parameter name="blocks_between_recompute" condition="int">0</parameter>
<parameter name="check_properties" condition="int">100</parameter>
<parameter name="checkproperties" condition="int">100</parameter>
<parameter name="current" condition="int">0</parameter>
<parameter name="dmcwalkersperthread" condition="real">250</parameter>
<parameter name="maxcpusecs" condition="real">3.6e+05</parameter>
<parameter name="record_configs" condition="int">0</parameter>
<parameter name="record_walkers" condition="int">8</parameter>
<parameter name="recordconfigs" condition="int">0</parameter>
<parameter name="recordwalkers" condition="int">8</parameter>
<parameter name="rewind" condition="int">0</parameter>
<parameter name="samples" condition="real">2000</parameter>
<parameter name="samplesperthread" condition="real">250</parameter>
<parameter name="spinmass" condition="double">1</parameter>
<parameter name="spinmoves" condition="string">no</parameter>
<parameter name="steps" condition="int">20</parameter>
<parameter name="stepsbetweensamples" condition="int">8</parameter>
<parameter name="store_configs" condition="int">0</parameter>
<parameter name="storeconfigs" condition="int">0</parameter>
<parameter name="sub_steps" condition="int">2</parameter>
<parameter name="substeps" condition="int">2</parameter>
<parameter name="tau" condition="au">1.5</parameter>
<parameter name="time_step" condition="au">1.5</parameter>
<parameter name="timestep" condition="au">1.5</parameter>
<parameter name="use_drift" condition="string">yes</parameter>
<parameter name="usedrift" condition="string">yes</parameter>
<parameter name="walkers" condition="int">8</parameter>
<parameter name="warmup_steps" condition="int">0</parameter>
<parameter name="warmupsteps" condition="int">0</parameter>
  DumpConfig==false Nothing (configurations, state) will be saved.
  Walker Samples are dumped every 8 steps.
</vmc>
    Restarting, cummulative properties:
      energy     = -12.09
      variance   = 0
      r2accepted = 1e-10
      r2proposed = 1e-10
  Set drift_modifier UNR parameter a = 1
  Adding a default LocalEnergyEstimator for the MainEstimator 
 Using QMCCostFunction::QMCCostFunction
  Set drift_modifier UNR parameter a = 1.0000e+00
<optimization-report>
<vmc stage="main" blocks="100">
  Cannot make clones again. Use existing 8 clones
  Initial partition of walkers 0 1 2 3 4 5 6 7 8 

  Using Particle by Particle moves
  Walker moves with drift
  Total Sample Size   =2000
  Walker distribution on root = 0 1 2 3 4 5 6 7 8 
  Using Locality Approximation
===== Memory Usage after the buffer registration =====
Available memory on node 0, free + buffers : 3532 MB
Memory footprint by rank 0 on node 0       : 106 MB
==================================================
  Anonymous Buffer size per walker : 1755880 Bytes.
MEMORY increase 13 MB VMC::resetRun
====================================================
  SimpleFixedNodeBranch::finalize after a VMC block
    QMC counter        = 3
    time step          = 1.5
    reference energy   = -12.3162
    reference variance = 0.135684
====================================================
  Execution time = 2.0090e+02
</vmc>
<opt stage="setup">
  <log>
   Reading configurations from h5FileRoot qmc.dump.s003
  QMCCostFunction is created with 8 threads.
  Using Nonlocal PP in Opt: NonLocalECP
   Number of samples loaded to each thread : 250 250 250 250 250 250 250 250 
  VMC Eavg = -1.2441e+01
  VMC Evar = 1.5445e-01
  Total weights = 2.0000e+03
  Execution time = 9.9941e+00
  </log>
</opt>
<opt stage="main" walkers="2000">
  <log>

*****************************************
Building overlap and Hamiltonian matrices
*****************************************

Among totally 144 optimized parameters, largest LM parameter change : 5.4144e-02 at parameter 0

******************************************************************************
Init Cost =   1.5445e-01    New Cost =   1.2587e-01  Delta Cost =  -2.8580e-02
******************************************************************************

The new set of parameters is valid. Updating the trial wave function!

*****************************************************************************
Applying the update for shift_i =   1.0000e-02     and shift_s =   1.5625e-02
*****************************************************************************
  Execution time = 2.2087e+02
  </log>
  <optVariables href="qmc.dump.s003.opt.xml">
  uu_0                 3.182131e-01 1 1  ON 0
  uu_1                 1.524731e-01 1 1  ON 1
  uu_2                 4.468567e-02 1 1  ON 2
  uu_3                -2.928918e-02 1 1  ON 3
  uu_4                -7.017048e-02 1 1  ON 4
  uu_5                -9.415957e-02 1 1  ON 5
  uu_6                -1.100853e-01 1 1  ON 6
  uu_7                -1.085720e-01 1 1  ON 7
  uu_8                -9.077257e-02 1 1  ON 8
  uu_9                -8.932414e-02 1 1  ON 9
  ud_0                 4.399207e-01 1 1  ON 10
  ud_1                 1.241870e-01 1 1  ON 11
  ud_2                -3.139069e-02 1 1  ON 12
  ud_3                -9.799451e-02 1 1  ON 13
  ud_4                -1.354213e-01 1 1  ON 14
  ud_5                -1.550828e-01 1 1  ON 15
  ud_6                -1.575280e-01 1 1  ON 16
  ud_7                -1.463154e-01 1 1  ON 17
  ud_8                -1.304874e-01 1 1  ON 18
  ud_9                -7.635350e-02 1 1  ON 19
  eC_0                -5.583625e-01 1 1  ON 20
  eC_1                -4.630500e-01 1 1  ON 21
  eC_2                -1.554027e-01 1 1  ON 22
  eC_3                 1.759427e-02 1 1  ON 23
  eC_4                 1.313924e-01 1 1  ON 24
  eC_5                 2.050078e-01 1 1  ON 25
  eC_6                 2.451459e-01 1 1  ON 26
  eC_7                 1.985673e-01 1 1  ON 27
  eC_8                 1.478852e-01 1 1  ON 28
  eC_9                 1.319743e-01 1 1  ON 29
  eH_0                -2.155210e-01 1 1  ON 30
  eH_1                -1.821359e-01 1 1  ON 31
  eH_2                -1.426670e-01 1 1  ON 32
  eH_3                -9.571286e-02 1 1  ON 33
  eH_4                -2.493290e-02 1 1  ON 34
  eH_5                 3.277723e-02 1 1  ON 35
  eH_6                 7.508565e-02 1 1  ON 36
  eH_7                 9.465311e-02 1 1  ON 37
  eH_8                 5.674880e-02 1 1  ON 38
  eH_9                 5.395019e-02 1 1  ON 39
 uuC_0                -5.835044e-04 1 1  ON 40
 uuC_1                 5.983245e-03 1 1  ON 41
 uuC_2                 4.004223e-03 1 1  ON 42
 uuC_3                -1.014966e-02 1 1  ON 43
 uuC_4                -7.501660e-03 1 1  ON 44
 uuC_5                -1.229008e-04 1 1  ON 45
 uuC_6                 5.223753e-03 1 1  ON 46
 uuC_7                 6.860915e-04 1 1  ON 47
 uuC_8                 1.062214e-02 1 1  ON 48
 uuC_9                 6.425253e-04 1 1  ON 49
uuC_10                -1.176516e-02 1 1  ON 50
uuC_11                 3.430696e-03 1 1  ON 51
uuC_12                -7.324298e-03 1 1  ON 52
uuC_13                 4.682402e-03 1 1  ON 53
uuC_14                 2.109081e-03 1 1  ON 54
uuC_15                 7.891380e-04 1 1  ON 55
uuC_16                -1.920078e-03 1 1  ON 56
uuC_17                 4.259861e-03 1 1  ON 57
uuC_18                 2.995462e-03 1 1  ON 58
uuC_19                 3.121503e-03 1 1  ON 59
uuC_20                 1.249511e-03 1 1  ON 60
uuC_21                -3.716937e-03 1 1  ON 61
uuC_22                 4.827107e-04 1 1  ON 62
uuC_23                -5.897345e-04 1 1  ON 63
uuC_24                 2.316850e-03 1 1  ON 64
uuC_25                -7.420666e-04 1 1  ON 65
 udC_0                -3.768392e-03 1 1  ON 66
 udC_1                -2.383635e-04 1 1  ON 67
 udC_2                 1.187953e-02 1 1  ON 68
 udC_3                 8.346751e-05 1 1  ON 69
 udC_4                -3.454293e-03 1 1  ON 70
 udC_5                -3.807673e-04 1 1  ON 71
 udC_6                 4.841300e-03 1 1  ON 72
 udC_7                -7.538632e-03 1 1  ON 73
 udC_8                 2.763426e-02 1 1  ON 74
 udC_9                 2.307871e-03 1 1  ON 75
udC_10                 8.880587e-04 1 1  ON 76
udC_11                -1.196269e-02 1 1  ON 77
udC_12                -1.506575e-02 1 1  ON 78
udC_13                 5.437421e-03 1 1  ON 79
udC_14                 1.204891e-02 1 1  ON 80
udC_15                 5.014903e-04 1 1  ON 81
udC_16                -8.634459e-03 1 1  ON 82
udC_17                 1.810613e-02 1 1  ON 83
udC_18                 5.967801e-03 1 1  ON 84
udC_19                 9.335927e-03 1 1  ON 85
udC_20                -4.997105e-03 1 1  ON 86
udC_21                -4.633248e-03 1 1  ON 87
udC_22                -3.105499e-04 1 1  ON 88
udC_23                 4.159429e-03 1 1  ON 89
udC_24                 2.017476e-04 1 1  ON 90
udC_25                -1.515898e-04 1 1  ON 91
 uuH_0                -4.146361e-03 1 1  ON 92
 uuH_1                 3.359483e-03 1 1  ON 93
 uuH_2                -3.811493e-03 1 1  ON 94
 uuH_3                 1.166685e-04 1 1  ON 95
 uuH_4                -4.020267e-03 1 1  ON 96
 uuH_5                -4.352066e-03 1 1  ON 97
 uuH_6                 1.800092e-03 1 1  ON 98
 uuH_7                 9.344808e-03 1 1  ON 99
 uuH_8                 3.919205e-03 1 1  ON 100
 uuH_9                 1.356190e-02 1 1  ON 101
uuH_10                -5.371666e-03 1 1  ON 102
uuH_11                -1.009723e-04 1 1  ON 103
uuH_12                -8.378436e-03 1 1  ON 104
uuH_13                -1.240326e-02 1 1  ON 105
uuH_14                 1.082016e-02 1 1  ON 106
uuH_15                -9.599943e-04 1 1  ON 107
uuH_16                 8.923028e-03 1 1  ON 108
uuH_17                 5.340085e-03 1 1  ON 109
uuH_18                -3.567019e-03 1 1  ON 110
uuH_19                 7.189402e-03 1 1  ON 111
uuH_20                -6.097183e-03 1 1  ON 112
uuH_21                -7.641524e-03 1 1  ON 113
uuH_22                 1.642605e-03 1 1  ON 114
uuH_23                 6.290757e-03 1 1  ON 115
uuH_24                 5.122356e-03 1 1  ON 116
uuH_25                -1.980271e-03 1 1  ON 117
 udH_0                 2.963412e-03 1 1  ON 118
 udH_1                -2.357887e-03 1 1  ON 119
 udH_2                -3.768952e-03 1 1  ON 120
 udH_3                -1.396485e-03 1 1  ON 121
 udH_4                -1.172079e-03 1 1  ON 122
 udH_5                 1.535235e-04 1 1  ON 123
 udH_6                -1.095823e-02 1 1  ON 124
 udH_7                 1.823326e-02 1 1  ON 125
 udH_8                 6.903556e-03 1 1  ON 126
 udH_9                 3.513142e-03 1 1  ON 127
udH_10                -4.495397e-04 1 1  ON 128
udH_11                -1.289926e-02 1 1  ON 129
udH_12                -4.174779e-03 1 1  ON 130
udH_13                 4.825367e-05 1 1  ON 131
udH_14                 1.062648e-02 1 1  ON 132
udH_15                -1.337406e-03 1 1  ON 133
udH_16                -1.661047e-03 1 1  ON 134
udH_17                 1.271426e-02 1 1  ON 135
udH_18                -1.087887e-02 1 1  ON 136
udH_19                 7.594832e-03 1 1  ON 137
udH_20                -5.643575e-04 1 1  ON 138
udH_21                 2.602067e-03 1 1  ON 139
udH_22                -1.916313e-03 1 1  ON 140
udH_23                 1.042244e-03 1 1  ON 141
udH_24                -2.102158e-03 1 1  ON 142
udH_25                 9.634711e-04 1 1  ON 143
  </optVariables>
   Restore the number of walkers to 8, removing 0 walkers.
</opt>
</optimization-report>
  QMC Execution time = 220.9 secs
Loop execution max-interations = 3
BRANCH resetRun
  Continue with the same input as the previous block.
 SimpleFixedNodeBranch::resetRun detected changes in <parameter>'s 
 BranchMode : 0000001100 0000001100
 iParam (old):                 20                 1                 3                 8                 8                 8                 1                 0
 iParam (new):                 20                 1                 3                 8                 8                 8                 1                 0
 vParam (old):                1.5               0.5      -11.96280356      -11.96280356                 1                 1                 1                 1      0.4239845102      -11.96280356                 1                 1                10                 1                 1                 1                 1
 vParam (new):                1.5               0.5      -11.96280356      -11.96280356                 1                 1                 1                 1      0.4239845102      -11.96280356                 1                 1                10                 1                 1                 1                 1

=========================================================
  Start QMCFixedSampleLinearOptimize
  File Root qmc.dump.s004 append = no 
=========================================================
  Skip QMCDriver::putQMCInfo 
  Resetting Properties of the walkers 1 x 14

=========================================================
  Start VMC
  File Root qmc.dump.s004 append = no 
=========================================================
Resetting walkers
  Using the current 8 walkers.
  Total number of walkers: 8
  Total weight: 8
  Resetting Properties of the walkers 1 x 14

<vmc function="put">
  qmc_counter=0  my_counter=0
  time step      = 1.5
  blocks         = 100
  steps          = 20
  substeps       = 2
  current        = 0
  target samples = 4000
  walkers/mpi    = 8

  stepsbetweensamples = 4
  SpinMoves      = no
<parameter name="blocks" condition="int">100</parameter>
<parameter name="blocks_between_recompute" condition="int">0</parameter>
<parameter name="check_properties" condition="int">100</parameter>
<parameter name="checkproperties" condition="int">100</parameter>
<parameter name="current" condition="int">0</parameter>
<parameter name="dmcwalkersperthread" condition="real">500</parameter>
<parameter name="maxcpusecs" condition="real">360000</parameter>
<parameter name="record_configs" condition="int">0</parameter>
<parameter name="record_walkers" condition="int">4</parameter>
<parameter name="recordconfigs" condition="int">0</parameter>
<parameter name="recordwalkers" condition="int">4</parameter>
<parameter name="rewind" condition="int">0</parameter>
<parameter name="samples" condition="real">4000</parameter>
<parameter name="samplesperthread" condition="real">500</parameter>
<parameter name="spinmass" condition="double">1</parameter>
<parameter name="spinmoves" condition="string">no</parameter>
<parameter name="steps" condition="int">20</parameter>
<parameter name="stepsbetweensamples" condition="int">4</parameter>
<parameter name="store_configs" condition="int">0</parameter>
<parameter name="storeconfigs" condition="int">0</parameter>
<parameter name="sub_steps" condition="int">2</parameter>
<parameter name="substeps" condition="int">2</parameter>
<parameter name="tau" condition="au">1.5</parameter>
<parameter name="time_step" condition="au">1.5</parameter>
<parameter name="timestep" condition="au">1.5</parameter>
<parameter name="use_drift" condition="string">yes</parameter>
<parameter name="usedrift" condition="string">yes</parameter>
<parameter name="walkers" condition="int">8</parameter>
<parameter name="warmup_steps" condition="int">0</parameter>
<parameter name="warmupsteps" condition="int">0</parameter>
  DumpConfig==false Nothing (configurations, state) will be saved.
  Walker Samples are dumped every 4 steps.
</vmc>
    Restarting, cummulative properties:
      energy     = -12.14400432
      variance   = 0
      r2accepted = 1e-10
      r2proposed = 1e-10
  Set drift_modifier UNR parameter a = 1
  Adding a default LocalEnergyEstimator for the MainEstimator 
 Using QMCCostFunction::QMCCostFunction
  Set drift_modifier UNR parameter a = 1.0000000000e+00
<optimization-report>
<vmc stage="main" blocks="100">
  Cannot make clones again. Use existing 8 clones
  Initial partition of walkers 0 1 2 3 4 5 6 7 8 

  Using Particle by Particle moves
  Walker moves with drift
  Total Sample Size   =4000
  Walker distribution on root = 0 1 2 3 4 5 6 7 8 
  Using Locality Approximation
===== Memory Usage after the buffer registration =====
Available memory on node 0, free + buffers : 3528 MB
Memory footprint by rank 0 on node 0       : 108 MB
==================================================
  Anonymous Buffer size per walker : 1755880 Bytes.
MEMORY increase 13 MB VMC::resetRun
====================================================
  SimpleFixedNodeBranch::finalize after a VMC block
    QMC counter        = 4
    time step          = 1.5
    reference energy   = -12.3592
    reference variance = 0.0720058
====================================================
  Execution time = 2.0127e+02
</vmc>
<opt stage="setup">
  <log>
   Reading configurations from h5FileRoot qmc.dump.s004
  QMCCostFunction is created with 8 threads.
  Using Nonlocal PP in Opt: NonLocalECP
   Number of samples loaded to each thread : 500 500 500 500 500 500 500 500 
  VMC Eavg = -1.2430e+01
  VMC Evar = 2.0240e-01
  Total weights = 4.0000e+03
  Execution time = 2.0020e+01
  </log>
</opt>
<opt stage="main" walkers="4000">
  <log>

*****************************************
Building overlap and Hamiltonian matrices
*****************************************

Among totally 144 optimized parameters, largest LM parameter change : 9.3680e-02 at parameter 29

******************************************************************************
Init Cost =   2.0240e-01    New Cost =   1.8013e-01  Delta Cost =  -2.2267e-02
******************************************************************************

The new set of parameters is valid. Updating the trial wave function!

*****************************************************************************
Applying the update for shift_i =   1.0000e-02     and shift_s =   2.5000e-01
*****************************************************************************
  Execution time = 2.4126e+02
  </log>
  <optVariables href="qmc.dump.s004.opt.xml">
  uu_0                 3.247911e-01 1 1  ON 0
  uu_1                 1.555443e-01 1 1  ON 1
  uu_2                 4.109458e-02 1 1  ON 2
  uu_3                -2.966758e-02 1 1  ON 3
  uu_4                -7.590704e-02 1 1  ON 4
  uu_5                -1.024713e-01 1 1  ON 5
  uu_6                -1.267647e-01 1 1  ON 6
  uu_7                -1.321220e-01 1 1  ON 7
  uu_8                -1.107290e-01 1 1  ON 8
  uu_9                -1.266146e-01 1 1  ON 9
  ud_0                 4.306972e-01 1 1  ON 10
  ud_1                 1.157195e-01 1 1  ON 11
  ud_2                -3.518400e-02 1 1  ON 12
  ud_3                -1.015530e-01 1 1  ON 13
  ud_4                -1.387834e-01 1 1  ON 14
  ud_5                -1.615058e-01 1 1  ON 15
  ud_6                -1.649596e-01 1 1  ON 16
  ud_7                -1.565113e-01 1 1  ON 17
  ud_8                -1.315397e-01 1 1  ON 18
  ud_9                -1.050625e-01 1 1  ON 19
  eC_0                -6.060287e-01 1 1  ON 20
  eC_1                -4.831466e-01 1 1  ON 21
  eC_2                -2.045470e-01 1 1  ON 22
  eC_3                -2.762422e-02 1 1  ON 23
  eC_4                 8.288201e-02 1 1  ON 24
  eC_5                 1.678471e-01 1 1  ON 25
  eC_6                 2.461282e-01 1 1  ON 26
  eC_7                 2.041706e-01 1 1  ON 27
  eC_8                 2.005574e-01 1 1  ON 28
  eC_9                 2.256546e-01 1 1  ON 29
  eH_0                -2.747602e-01 1 1  ON 30
  eH_1                -2.010216e-01 1 1  ON 31
  eH_2                -1.632926e-01 1 1  ON 32
  eH_3                -1.105040e-01 1 1  ON 33
  eH_4                -3.480172e-02 1 1  ON 34
  eH_5                 2.366932e-02 1 1  ON 35
  eH_6                 7.837855e-02 1 1  ON 36
  eH_7                 9.463096e-02 1 1  ON 37
  eH_8                 6.427722e-02 1 1  ON 38
  eH_9                 3.268527e-02 1 1  ON 39
 uuC_0                -1.786467e-04 1 1  ON 40
 uuC_1                 4.249501e-03 1 1  ON 41
 uuC_2                 8.497665e-03 1 1  ON 42
 uuC_3                -4.110692e-03 1 1  ON 43
 uuC_4                -2.649005e-03 1 1  ON 44
 uuC_5                -7.478773e-05 1 1  ON 45
 uuC_6                 7.187715e-03 1 1  ON 46
 uuC_7                -5.710017e-03 1 1  ON 47
 uuC_8                 1.330032e-02 1 1  ON 48
 uuC_9                -3.507713e-03 1 1  ON 49
uuC_10                -1.634380e-03 1 1  ON 50
uuC_11                -4.428317e-03 1 1  ON 51
uuC_12                -5.341982e-03 1 1  ON 52
uuC_13                 4.953780e-03 1 1  ON 53
uuC_14                 2.208592e-03 1 1  ON 54
uuC_15                 5.962155e-04 1 1  ON 55
uuC_16                -1.926427e-03 1 1  ON 56
uuC_17                 4.600118e-03 1 1  ON 57
uuC_18                 2.917699e-03 1 1  ON 58
uuC_19                 2.779478e-03 1 1  ON 59
uuC_20                 5.407268e-05 1 1  ON 60
uuC_21                -1.347831e-03 1 1  ON 61
uuC_22                -3.206876e-04 1 1  ON 62
uuC_23                -1.150994e-04 1 1  ON 63
uuC_24                 5.638963e-04 1 1  ON 64
uuC_25                -3.733634e-05 1 1  ON 65
 udC_0                -8.087696e-03 1 1  ON 66
 udC_1                 3.279466e-03 1 1  ON 67
 udC_2                 1.900838e-02 1 1  ON 68
 udC_3                 8.606485e-04 1 1  ON 69
 udC_4                -5.151693e-03 1 1  ON 70
 udC_5                -7.290327e-04 1 1  ON 71
 udC_6                 1.849655e-02 1 1  ON 72
 udC_7                -3.373320e-03 1 1  ON 73
 udC_8                 2.422914e-02 1 1  ON 74
 udC_9                -3.285399e-03 1 1  ON 75
udC_10                 2.475063e-04 1 1  ON 76
udC_11                -1.218211e-02 1 1  ON 77
udC_12                -1.092290e-02 1 1  ON 78
udC_13                -2.466730e-04 1 1  ON 79
udC_14                 7.126536e-03 1 1  ON 80
udC_15                 4.832383e-04 1 1  ON 81
udC_16                 2.218940e-04 1 1  ON 82
udC_17                 2.777936e-03 1 1  ON 83
udC_18                 8.514053e-03 1 1  ON 84
udC_19                 5.767057e-03 1 1  ON 85
udC_20                 1.658746e-04 1 1  ON 86
udC_21                -4.517519e-03 1 1  ON 87
udC_22                 3.128703e-05 1 1  ON 88
udC_23                -2.656771e-05 1 1  ON 89
udC_24                 1.764994e-03 1 1  ON 90
udC_25                -3.992982e-04 1 1  ON 91
 uuH_0                -1.264159e-03 1 1  ON 92
 uuH_1                 4.943277e-03 1 1  ON 93
 uuH_2                -2.503321e-03 1 1  ON 94
 uuH_3                -5.063614e-03 1 1  ON 95
 uuH_4                -4.529346e-03 1 1  ON 96
 uuH_5                -2.967800e-05 1 1  ON 97
 uuH_6                 5.726511e-04 1 1  ON 98
 uuH_7                 2.079321e-02 1 1  ON 99
 uuH_8                -3.705073e-04 1 1  ON 100
 uuH_9                -8.630702e-05 1 1  ON 101
uuH_10                -6.759387e-03 1 1  ON 102
uuH_11                -2.499846e-03 1 1  ON 103
uuH_12                -7.997083e-03 1 1  ON 104
uuH_13                -5.603329e-03 1 1  ON 105
uuH_14                 9.440751e-03 1 1  ON 106
uuH_15                -1.774946e-04 1 1  ON 107
uuH_16                 9.039729e-03 1 1  ON 108
uuH_17                 1.245112e-04 1 1  ON 109
uuH_18                -8.656305e-03 1 1  ON 110
uuH_19                 1.918196e-02 1 1  ON 111
uuH_20                 1.077048e-03 1 1  ON 112
uuH_21                -5.784408e-03 1 1  ON 113
uuH_22                -3.503932e-03 1 1  ON 114
uuH_23                -1.976392e-04 1 1  ON 115
uuH_24                 4.163252e-03 1 1  ON 116
uuH_25                 3.229178e-04 1 1  ON 117
 udH_0                 2.450351e-03 1 1  ON 118
 udH_1                -2.517086e-04 1 1  ON 119
 udH_2                -9.481845e-03 1 1  ON 120
 udH_3                -3.038627e-03 1 1  ON 121
 udH_4                -1.391516e-03 1 1  ON 122
 udH_5                 2.953281e-04 1 1  ON 123
 udH_6                -6.833754e-03 1 1  ON 124
 udH_7                 1.163394e-02 1 1  ON 125
 udH_8                -2.722778e-03 1 1  ON 126
 udH_9                 2.934294e-03 1 1  ON 127
udH_10                -5.415630e-03 1 1  ON 128
udH_11                 2.154858e-03 1 1  ON 129
udH_12                -3.987548e-03 1 1  ON 130
udH_13                 1.154184e-03 1 1  ON 131
udH_14                 8.381294e-03 1 1  ON 132
udH_15                -8.367052e-04 1 1  ON 133
udH_16                -4.873434e-03 1 1  ON 134
udH_17                 1.404994e-02 1 1  ON 135
udH_18                -7.295471e-03 1 1  ON 136
udH_19                 7.320837e-03 1 1  ON 137
udH_20                 4.548080e-04 1 1  ON 138
udH_21                -4.781963e-03 1 1  ON 139
udH_22                -3.294483e-04 1 1  ON 140
udH_23                 7.515915e-04 1 1  ON 141
udH_24                 2.489017e-03 1 1  ON 142
udH_25                -3.174295e-04 1 1  ON 143
  </optVariables>
   Restore the number of walkers to 8, removing 0 walkers.
</opt>
</optimization-report>
  QMC Execution time = 241.3 secs

=========================================================
  Start QMCFixedSampleLinearOptimize
  File Root qmc.dump.s005 append = no 
=========================================================
  Skip QMCDriver::putQMCInfo 
  Resetting Properties of the walkers 1 x 14

=========================================================
  Start VMC
  File Root qmc.dump.s005 append = no 
=========================================================
[...]
udH_21                -1.497805e-01 1 1  ON 139
udH_22                 3.587306e+00 1 1  ON 140
udH_23                 1.667607e+00 1 1  ON 141
udH_24                 5.015404e-01 1 1  ON 142
udH_25                -9.950667e-01 1 1  ON 143
  </optVariables>
   Restore the number of walkers to 8, removing 0 walkers.
</opt>
</optimization-report>
  QMC Execution time = 229.1 secs

=========================================================
  Start QMCFixedSampleLinearOptimize
  File Root qmc.dump.s031 append = no 
=========================================================
  Skip QMCDriver::putQMCInfo 
  Resetting Properties of the walkers 1 x 14

=========================================================
  Start VMC
  File Root qmc.dump.s031 append = no 
=========================================================
Using existing walkers 
  Resetting Properties of the walkers 1 x 14

<vmc function="put">
  qmc_counter=9  my_counter=0
  time step      = 0.5
  blocks         = 40
  steps          = 100
  substeps       = 5
  current        = 0
  target samples = 3.2e+04
  walkers/mpi    = 8

  stepsbetweensamples = 1
  SpinMoves      = no
<parameter name="blocks" condition="int">40</parameter>
<parameter name="blocks_between_recompute" condition="int">0</parameter>
<parameter name="check_properties" condition="int">100</parameter>
<parameter name="checkproperties" condition="int">100</parameter>
<parameter name="current" condition="int">0</parameter>
<parameter name="dmcwalkersperthread" condition="real">4000</parameter>
<parameter name="maxcpusecs" condition="real">3.6e+05</parameter>
<parameter name="record_configs" condition="int">0</parameter>
<parameter name="record_walkers" condition="int">1</parameter>
<parameter name="recordconfigs" condition="int">0</parameter>
<parameter name="recordwalkers" condition="int">1</parameter>
<parameter name="rewind" condition="int">0</parameter>
<parameter name="samples" condition="real">3.2e+04</parameter>
<parameter name="samplesperthread" condition="real">4000</parameter>
<parameter name="spinmass" condition="double">1</parameter>
<parameter name="spinmoves" condition="string">no</parameter>
<parameter name="steps" condition="int">100</parameter>
<parameter name="stepsbetweensamples" condition="int">1</parameter>
<parameter name="store_configs" condition="int">0</parameter>
<parameter name="storeconfigs" condition="int">0</parameter>
<parameter name="sub_steps" condition="int">5</parameter>
<parameter name="substeps" condition="int">5</parameter>
<parameter name="tau" condition="au">0.5</parameter>
<parameter name="time_step" condition="au">0.5</parameter>
<parameter name="timestep" condition="au">0.5</parameter>
<parameter name="use_drift" condition="string">no</parameter>
<parameter name="usedrift" condition="string">no</parameter>
<parameter name="walkers" condition="int">1</parameter>
<parameter name="warmup_steps" condition="int">5</parameter>
<parameter name="warmupsteps" condition="int">5</parameter>
  DumpConfig==false Nothing (configurations, state) will be saved.
  Walker Samples are dumped every 1 steps.
</vmc>
    Restarting, cummulative properties:
      energy     = 561.2
      variance   = 0
      r2accepted = 1e-10
      r2proposed = 1e-10
  Set drift_modifier UNR parameter a = 1
 Using QMCCostFunction::QMCCostFunction
 Using Default Cost Function: Cost = <|E-E_ff|^2>
  Set drift_modifier UNR parameter a = 1.0000e+00
  EstimatorManagerBase::add replace LocalEnergy estimator.
<optimization-report>
<vmc stage="main" blocks="40">
  Cannot make clones again. Use existing 8 clones
  Initial partition of walkers 0 1 2 3 4 5 6 7 8 

  Using Particle by Particle moves
  Walker moves without drift
  Total Sample Size   =32000
  Walker distribution on root = 0 1 2 3 4 5 6 7 8 
  Using Locality Approximation
===== Memory Usage after the buffer registration =====
Available memory on node 0, free + buffers : 3303 MB
Memory footprint by rank 0 on node 0       : 268 MB
==================================================
  Anonymous Buffer size per walker : 1755880 Bytes.
MEMORY increase 13 MB VMC::resetRun
====================================================
  SimpleFixedNodeBranch::finalize after a VMC block
    QMC counter        = 31
    time step          = 0.5
    reference energy   = 1091.52
    reference variance = 111092
====================================================
  Execution time = 1.5520e+02
</vmc>
<opt stage="setup">
  <log>
   Reading configurations from h5FileRoot qmc.dump.s031
  QMCCostFunction is created with 8 threads.
  Using Nonlocal PP in Opt: no
   Number of samples loaded to each thread : 4000 4000 4000 4000 4000 4000 4000 4000 
  VMC Eavg = 9.7057e+02
  VMC Evar = 1.5295e+05
  Total weights = 3.2000e+04
  Execution time = 7.1942e+01
  </log>
</opt>
<opt stage="main" walkers="32000">
  <log>

*****************************************
Building overlap and Hamiltonian matrices
*****************************************

Among totally 144 optimized parameters, largest LM parameter change : 2.2252e+03 at parameter 37
ERROR CostFunction-> Number of Effective Walkers is too small! 
  Number of effective walkers (samples) / total number of samples = 0.000156251
  User specified threshold minwalkers = 0.5
  If this message appears frequently. You might have to be cautious. 
  Find info about parameter "minwalkers" in the user manual!

******************************************************************************
Init Cost =   1.6169e+04    New Cost =   3.3126e+04  Delta Cost =   1.6958e+04
******************************************************************************

The new set of parameters is not valid. Revert to the old set!

*****************************************************************************
Applying the update for shift_i =   1.0000e-02     and shift_s =   5.1200e+02
*****************************************************************************
  Execution time = 2.2853e+02
  </log>
  <optVariables href="qmc.dump.s031.opt.xml">
  uu_0                 7.998967e-01 1 1  ON 0
  uu_1                 2.996348e-01 1 1  ON 1
  uu_2                 2.854560e-01 1 1  ON 2
  uu_3                 1.421949e-01 1 1  ON 3
  uu_4                 5.225974e-01 1 1  ON 4
  uu_5                -1.494529e+00 1 1  ON 5
  uu_6                -6.711009e-01 1 1  ON 6
  uu_7                 5.518444e+01 1 1  ON 7
  uu_8                 3.145222e+00 1 1  ON 8
  uu_9                -4.161497e+00 1 1  ON 9
  ud_0                -3.832314e+00 1 1  ON 10
  ud_1                -4.151901e+00 1 1  ON 11
  ud_2                -4.486474e+00 1 1  ON 12
  ud_3                -4.202316e+00 1 1  ON 13
  ud_4                -4.792323e+00 1 1  ON 14
  ud_5                -3.904364e+00 1 1  ON 15
  ud_6                -5.113929e+00 1 1  ON 16
  ud_7                -3.913913e+00 1 1  ON 17
  ud_8                 6.279536e+00 1 1  ON 18
  ud_9                -1.639078e+00 1 1  ON 19
  eC_0                 5.765869e+02 1 1  ON 20
  eC_1                 5.685828e+02 1 1  ON 21
  eC_2                 5.635305e+02 1 1  ON 22
  eC_3                 5.512670e+02 1 1  ON 23
  eC_4                 5.337757e+02 1 1  ON 24
  eC_5                 5.108792e+02 1 1  ON 25
  eC_6                 4.841078e+02 1 1  ON 26
  eC_7                 4.572060e+02 1 1  ON 27
  eC_8                 3.839600e+02 1 1  ON 28
  eC_9                 4.559322e+02 1 1  ON 29
  eH_0                -2.716002e+02 1 1  ON 30
  eH_1                -2.677390e+02 1 1  ON 31
  eH_2                -2.609169e+02 1 1  ON 32
  eH_3                -2.478581e+02 1 1  ON 33
  eH_4                -2.300866e+02 1 1  ON 34
  eH_5                -2.087944e+02 1 1  ON 35
  eH_6                -1.800919e+02 1 1  ON 36
  eH_7                -1.347210e+02 1 1  ON 37
  eH_8                -1.265447e+02 1 1  ON 38
  eH_9                -8.214148e+01 1 1  ON 39
 uuC_0                -2.090400e+00 1 1  ON 40
 uuC_1                 4.737984e+00 1 1  ON 41
 uuC_2                -2.482243e+00 1 1  ON 42
 uuC_3                -5.125204e+00 1 1  ON 43
 uuC_4                -6.496472e+00 1 1  ON 44
 uuC_5                -8.162902e-01 1 1  ON 45
 uuC_6                 9.502996e+00 1 1  ON 46
 uuC_7                -7.031397e+00 1 1  ON 47
 uuC_8                 1.683547e+00 1 1  ON 48
 uuC_9                 2.828161e+00 1 1  ON 49
uuC_10                -1.119989e+01 1 1  ON 50
uuC_11                 1.210148e+01 1 1  ON 51
uuC_12                -8.793674e+00 1 1  ON 52
uuC_13                -2.832944e+00 1 1  ON 53
uuC_14                 4.150985e+00 1 1  ON 54
uuC_15                 5.374608e-01 1 1  ON 55
uuC_16                -5.091389e+00 1 1  ON 56
uuC_17                 3.193358e-02 1 1  ON 57
uuC_18                 6.129893e+00 1 1  ON 58
uuC_19                 5.341217e+00 1 1  ON 59
uuC_20                 5.450157e+00 1 1  ON 60
uuC_21                -8.716582e+00 1 1  ON 61
uuC_22                 1.082102e+00 1 1  ON 62
uuC_23                -2.547388e+00 1 1  ON 63
uuC_24                 4.422057e+00 1 1  ON 64
uuC_25                -1.141253e+00 1 1  ON 65
 udC_0                -1.013264e-01 1 1  ON 66
 udC_1                 1.573123e+00 1 1  ON 67
 udC_2                 9.934370e-01 1 1  ON 68
 udC_3                -1.267284e+00 1 1  ON 69
 udC_4                 6.598961e-01 1 1  ON 70
 udC_5                -5.048476e-02 1 1  ON 71
 udC_6                 1.487372e+00 1 1  ON 72
 udC_7                 5.392912e+00 1 1  ON 73
 udC_8                 2.248045e-02 1 1  ON 74
 udC_9                -1.713782e+00 1 1  ON 75
udC_10                -7.339261e-01 1 1  ON 76
udC_11                -1.862629e+00 1 1  ON 77
udC_12                 4.332512e+00 1 1  ON 78
udC_13                 1.103593e+00 1 1  ON 79
udC_14                -2.616236e+00 1 1  ON 80
udC_15                -3.728712e-01 1 1  ON 81
udC_16                -2.830349e-01 1 1  ON 82
udC_17                 1.787987e+00 1 1  ON 83
udC_18                -4.012604e+00 1 1  ON 84
udC_19                -5.606498e+00 1 1  ON 85
udC_20                 1.617156e+00 1 1  ON 86
udC_21                 3.775916e+00 1 1  ON 87
udC_22                 5.746217e-01 1 1  ON 88
udC_23                -1.941416e+00 1 1  ON 89
udC_24                -1.330508e+00 1 1  ON 90
udC_25                 5.445155e-02 1 1  ON 91
 uuH_0                -5.527478e+00 1 1  ON 92
 uuH_1                -2.360657e+01 1 1  ON 93
 uuH_2                 2.104036e+00 1 1  ON 94
 uuH_3                 2.084171e+01 1 1  ON 95
 uuH_4                 1.187776e+01 1 1  ON 96
 uuH_5                 2.113212e+00 1 1  ON 97
 uuH_6                -3.576288e+01 1 1  ON 98
 uuH_7                -6.949261e+00 1 1  ON 99
 uuH_8                 2.497043e+00 1 1  ON 100
 uuH_9                 2.546561e+01 1 1  ON 101
uuH_10                 2.946288e+01 1 1  ON 102
uuH_11                -2.887323e+01 1 1  ON 103
uuH_12                -8.403231e-01 1 1  ON 104
uuH_13                -1.893996e+01 1 1  ON 105
uuH_14                 4.077395e+00 1 1  ON 106
uuH_15                -2.963481e-01 1 1  ON 107
uuH_16                -2.708021e+01 1 1  ON 108
uuH_17                -2.862821e+01 1 1  ON 109
uuH_18                 6.264678e+01 1 1  ON 110
uuH_19                -7.472105e+00 1 1  ON 111
uuH_20                 4.203545e+00 1 1  ON 112
uuH_21                -1.979467e+01 1 1  ON 113
uuH_22                 4.779023e+00 1 1  ON 114
uuH_23                 4.061281e+00 1 1  ON 115
uuH_24                 6.097231e+00 1 1  ON 116
uuH_25                -2.186604e+00 1 1  ON 117
 udH_0                 4.695797e+00 1 1  ON 118
 udH_1                 1.556635e+00 1 1  ON 119
 udH_2                -3.678728e+00 1 1  ON 120
 udH_3                -2.491885e+00 1 1  ON 121
 udH_4                 5.732062e+00 1 1  ON 122
 udH_5                -8.016683e-02 1 1  ON 123
 udH_6                -1.245654e+00 1 1  ON 124
 udH_7                -1.278927e+01 1 1  ON 125
 udH_8                -7.201675e+00 1 1  ON 126
 udH_9                -2.981621e+00 1 1  ON 127
udH_10                 2.732905e+00 1 1  ON 128
udH_11                 8.219060e-01 1 1  ON 129
udH_12                 1.208734e+01 1 1  ON 130
udH_13                 8.217235e+00 1 1  ON 131
udH_14                -9.559503e+00 1 1  ON 132
udH_15                -5.006640e-01 1 1  ON 133
udH_16                 1.024612e+00 1 1  ON 134
udH_17                -5.259084e+00 1 1  ON 135
udH_18                 1.674623e+01 1 1  ON 136
udH_19                -1.851116e+01 1 1  ON 137
udH_20                -5.268271e+00 1 1  ON 138
udH_21                -1.497805e-01 1 1  ON 139
udH_22                 3.587306e+00 1 1  ON 140
udH_23                 1.667607e+00 1 1  ON 141
udH_24                 5.015404e-01 1 1  ON 142
udH_25                -9.950667e-01 1 1  ON 143
  </optVariables>
   Restore the number of walkers to 8, removing 0 walkers.
</opt>
</optimization-report>
  QMC Execution time = 228.5 secs
BRANCH resetRun
 SimpleFixedNodeBranch::resetRun detected changes in <parameter>'s 
 BranchMode : 0000001100 0000001100
 iParam (old):                  5                 1                31                 8                 8                 8                 1                 0
 iParam (new):                100                 1                31                 8                 8                 8                 1                 0
 vParam (old):                0.5               0.5      -11.96280356      -11.96280356                 1                 1                 1                 1      0.4239845102      -11.96280356                 1                 1                10                 1                 1                 1                 1
 vParam (new):                0.1               0.5      -11.96280356      -11.96280356                 1                 1                 1                 1      0.4239845102      -11.96280356                 1                 1                10                 1                 1                 1                 1

=========================================================
  Start VMC
  File Root qmc.dump.s032 append = no 
=========================================================
Resetting walkers
  Using the current 8 walkers.
  Total number of walkers: 8
  Total weight: 8
  Resetting Properties of the walkers 1 x 14

<vmc function="put">
  qmc_counter=0  my_counter=0
  time step      = 0.1
  blocks         = 200
  steps          = 1
  substeps       = 30
  current        = 0
  target samples = 8
  walkers/mpi    = 8

  stepsbetweensamples = 200
  SpinMoves      = no
<parameter name="blocks" condition="int">200</parameter>
<parameter name="blocks_between_recompute" condition="int">0</parameter>
<parameter name="check_properties" condition="int">100</parameter>
<parameter name="checkproperties" condition="int">100</parameter>
<parameter name="current" condition="int">0</parameter>
<parameter name="dmcwalkersperthread" condition="real">1</parameter>
<parameter name="maxcpusecs" condition="real">360000</parameter>
<parameter name="record_configs" condition="int">0</parameter>
<parameter name="record_walkers" condition="int">200</parameter>
<parameter name="recordconfigs" condition="int">0</parameter>
<parameter name="recordwalkers" condition="int">200</parameter>
<parameter name="rewind" condition="int">0</parameter>
<parameter name="samples" condition="real">8</parameter>
<parameter name="samplesperthread" condition="real">1</parameter>
<parameter name="spinmass" condition="double">1</parameter>
<parameter name="spinmoves" condition="string">no</parameter>
<parameter name="steps" condition="int">1</parameter>
<parameter name="stepsbetweensamples" condition="int">200</parameter>
<parameter name="store_configs" condition="int">0</parameter>
<parameter name="storeconfigs" condition="int">0</parameter>
<parameter name="sub_steps" condition="int">30</parameter>
<parameter name="substeps" condition="int">30</parameter>
<parameter name="tau" condition="au">0.1</parameter>
<parameter name="time_step" condition="au">0.1</parameter>
<parameter name="timestep" condition="au">0.1</parameter>
<parameter name="use_drift" condition="string">no</parameter>
<parameter name="usedrift" condition="string">no</parameter>
<parameter name="walkers" condition="int">8</parameter>
<parameter name="warmup_steps" condition="int">100</parameter>
<parameter name="warmupsteps" condition="int">100</parameter>
  DumpConfig==false Nothing (configurations, state) will be saved.
  Walker Samples are dumped every 200 steps.
</vmc>
  Set drift_modifier UNR parameter a = 1
  EstimatorManagerBase::add replace LocalEnergy estimator.
  Cannot make clones again. Use existing 8 clones
  Initial partition of walkers 0 1 2 3 4 5 6 7 8 

  Using Particle by Particle moves
  Walker moves without drift
  Total Sample Size   =8
  Walker distribution on root = 0 1 2 3 4 5 6 7 8 
  Using Locality Approximation
===== Memory Usage after the buffer registration =====
Available memory on node 0, free + buffers : 3302 MB
Memory footprint by rank 0 on node 0       : 268 MB
==================================================
  Anonymous Buffer size per walker : 1755880 Bytes.
MEMORY increase 13 MB VMC::resetRun
====================================================
  SimpleFixedNodeBranch::finalize after a VMC block
    QMC counter        = 32
    time step          = 0.1
    reference energy   = 807.127
    reference variance = 55311.3
====================================================
  QMC Execution time = 39.43 secs
BRANCH resetRun
 SimpleFixedNodeBranch::resetRun detected changes in <parameter>'s 
 BranchMode : 0000001100 0000001100
 iParam (old):                100                 1                32                 8                 8                 8                 1                 0
 iParam (new):                100                 1                32              4096                 8                 8                 1                 0
 vParam (old):                0.1               0.5       807.1267964       807.1267964                 1                 1                 1                 1       55311.34645       795.1639928                 2                 1                10                 1                 1                 1                 1
 vParam (new):              0.001               0.5       807.1267964       807.1267964                 1                 1                 1                 1       55311.34645       795.1639928                 2                 1                10                 1                 1                 1                 1

=========================================================
  Start DMC
  File Root qmc.dump.s033 append = no 
=========================================================
Using existing walkers 
  Resetting Properties of the walkers 1 x 14
  Set drift_modifier UNR parameter a = 1
  EstimatorManagerBase::add replace LocalEnergy estimator.
  Cannot make clones again. Use existing 8 clones
  Total number of walkers: 8
  Total weight: 8
  Creating WalkerController: target  number of walkers = 4096
  Using WalkerControlBase for dynamic population control.
  START ALL OVER 
  WalkerControlBase parameters 
    maxCopy = 2
    Max Walkers per MPI rank 8193
    Min Walkers per MPI rank 820
    Using non-blocking send/recv
  QMC counter      = 33
  time step        = 0.001
  effective time step = 0.001
  trial energy     = 807.1267964
  reference energy = 807.1267964
  Feedback = 1
  reference variance = 55311.34645
  target walkers = 4096
  branching cutoff scheme classic
  branch cutoff = 2500 3750
  Max and minimum walkers per node= 8193 820
  QMC Status (BranchMode) = 0000001101
  Total number of walkers: 4096
  Total weight: 4096
  Initial partition of walkers on a node: 0 512 1024 1536 2048 2560 3072 3584 4096 
  Updates by particle-by-particle moves
  DMC moves are rejected when a node crossing is detected
  Using Locality Approximation
