mkdir: cannot create directory ‘/global/cscratch1/sd/haihan/gamess_38675160’: File exists
----- GAMESS execution script 'rungms' -----
This job is running on host nid00018
under operating system Linux at Wed Feb 3 18:56:27 PST 2021
Slurm has assigned the following compute nodes to this run:
nid00018
Available scratch disk space (Kbyte units) at beginning of the job is
Filesystem                                                 1K-blocks           Used      Available Use% Mounted on
10.100.104.4@o2ib4000:10.101.104.5@o2ib4001:/snx11168 29531080226208 19119686871708 10113113659364  66% /global/cscratch1
GAMESS temporary binary files will be written to /global/cscratch1/sd/haihan/gamess_38675160
GAMESS supplementary output files will be written to /global/cscratch1/sd/haihan/gamess_38675160
Copying input file hf.inp to your run's scratch directory...
cp hf.inp /global/cscratch1/sd/haihan/gamess_38675160/hf.F05
unset echo
setenv DDI_DS_PER_NODE 1
setenv OMP_NUM_THREADS 1
setenv OMP_PROC_BIND spread
setenv OMP_PLACES cores
chdir /global/cscratch1/sd/haihan/gamess_38675160/hf
sbcast --compress=lz4 /usr/common/software/gamess/30SEP2019R2/intel/19.0.3.199/hsw/bin/gamess.00.x /tmp/gamess
srun -n 4 -c 2 --cpu_bind=cores /tmp/gamess hf
          ******************************************************
          *         GAMESS VERSION = 30 SEP 2019 (R2)          *
          *             FROM IOWA STATE UNIVERSITY             *
          * M.W.SCHMIDT, K.K.BALDRIDGE, J.A.BOATZ, S.T.ELBERT, *
          *   M.S.GORDON, J.H.JENSEN, S.KOSEKI, N.MATSUNAGA,   *
          *          K.A.NGUYEN, S.J.SU, T.L.WINDUS,           *
          *       TOGETHER WITH M.DUPUIS, J.A.MONTGOMERY       *
          *         J.COMPUT.CHEM.  14, 1347-1363(1993)        *
          **************** 64 BIT LINUX VERSION ****************

  SINCE 1993, STUDENTS AND POSTDOCS WORKING AT IOWA STATE UNIVERSITY
  AND ALSO IN THEIR VARIOUS JOBS AFTER LEAVING ISU HAVE MADE IMPORTANT
  CONTRIBUTIONS TO THE CODE:
     IVANA ADAMOVIC, CHRISTINE AIKENS, YURI ALEXEEV, POOJA ARORA,
     ANDREY ASADCHEV, ROB BELL, PRADIPTA BANDYOPADHYAY, JONATHAN BENTZ,
     COLLEEN BERTONI, BRETT BODE, KURT BRORSEN, CALEB CARLIN, GALINA CHABAN,
     WEI CHEN, CHEOL HO CHOI, PAUL DAY, ALBERT DEFUSCO, NUWAN DESILVA,
     TIM DUDLEY, DMITRI FEDOROV, ALEX FINDLATER, GRAHAM FLETCHER, 
     MARK FREITAG, KURT GLAESEMANN, EMILIE B GUIDEZ, ANASTASIA GUNINA, 
     DAN KEMP, SAROM SOK LEANG, GRANT MERRILL,
     NORIYUKI MINEZAWA, JONATHAN MULLIN,
     TAKESHI NAGATA, SEAN NEDD, HEATHER NETZLOFF, BOSILJKA NJEGIC, RYAN OLSON,
     MIKE PAK, BUU PHAM, DAVID POOLE,
     SPENCER PRUITT, LUKE ROSKOP, TOSAPORN SATTASATHUCHANA,
     JIM SHOEMAKER, LYUDMILA SLIPCHENKO,
     TONY SMITH, JIE SONG, TETSUYA TAKETSUGU, SIMON WEBB,
     JORGE LUIS GALVEZ VALLEJO, PENG XU, SOOHAENG YOO,
     FEDERICO ZAHARIEV

  ADDITIONAL CODE HAS BEEN PROVIDED BY COLLABORATORS IN OTHER GROUPS:
     IOWA STATE UNIVERSITY:
          JOE IVANIC, AARON WEST, LAIMUTIS BYTAUTAS, KLAUS RUEDENBERG
     UNIVERSITY OF TOKYO: KIMIHIKO HIRAO, TAKAHITO NAKAJIMA,
          TAKAO TSUNEDA, MUNEAKI KAMIYA, SUSUMU YANAGISAWA,
          KIYOSHI YAGI, MAHITO CHIBA, SEIKEN TOKURA, NAOAKI KAWAKAMI
     UNIVERSITY OF AARHUS: FRANK JENSEN
     UNIVERSITY OF IOWA: VISVALDAS KAIRYS, HUI LI
     NATIONAL INST. OF STANDARDS AND TECHNOLOGY: WALT STEVENS, DAVID GARMER
     UNIVERSITY OF PISA: BENEDETTA MENNUCCI, JACOPO TOMASI
     UNIVERSITY OF MEMPHIS: HENRY KURTZ, PRAKASHAN KORAMBATH
     UNIVERSITY OF ALBERTA: TOBY ZENG, MARIUSZ KLOBUKOWSKI
     UNIVERSITY OF NEW ENGLAND: MARK SPACKMAN
     MIE UNIVERSITY: HIROAKI UMEDA
     NAT. INST. OF ADVANCED INDUSTRIAL SCIENCE AND TECHNOLOGY: KAZUO KITAURA
     MICHIGAN STATE UNIVERSITY:
          KAROL KOWALSKI, MARTA WLOCH, JEFFREY GOUR, JESSE LUTZ,
          WEI LI, JUN SHEN, J. EMILIANO DEUSTUA, PIOTR PIECUCH
     UNIVERSITY OF MINNESOTA:
          ANDREW SAND, PRACHI SHARMA, YINAN SHU
     UNIVERSITY OF SILESIA: MONIKA MUSIAL, STANISLAW KUCHARSKI
     FACULTES UNIVERSITAIRES NOTRE-DAME DE LA PAIX:
          OLIVIER QUINET, BENOIT CHAMPAGNE
     UNIVERSITY OF CALIFORNIA - SANTA BARBARA: BERNARD KIRTMAN
     INSTITUTE FOR MOLECULAR SCIENCE:
          KAZUYA ISHIMURA, MICHIO KATOUDA, AND SHIGERU NAGASE
     UNIVERSITY OF NOTRE DAME: ANNA POMOGAEVA, DAN CHIPMAN
     KYUSHU UNIVERSITY:
          HARUYUKI NAKANO,
          FENG LONG GU, JACEK KORCHOWIEC, MARCIN MAKOWSKI, AND YURIKO AOKI,
          HIROTOSHI MORI AND EISAKU MIYOSHI
     PENNSYLVANIA STATE UNIVERSITY:
          TZVETELIN IORDANOV, CHET SWALINA, JONATHAN SKONE,
          SHARON HAMMES-SCHIFFER
     WASEDA UNIVERSITY:
          MASATO KOBAYASHI, TOMOKO AKAMA, TSUGUKI TOUMA,
          TAKESHI YOSHIKAWA, YASUHIRO IKABATA, JUNJI SEINO,
          YUYA NAKAJIMA, HIROMI NAKAI
     NANJING UNIVERSITY: SHUHUA LI
     UNIVERSITY OF NEBRASKA:
          PEIFENG SU, DEJUN SI, NANDUN THELLAMUREGE, YALI WANG, HUI LI
     UNIVERSITY OF ZURICH: ROBERTO PEVERATI, KIM BALDRIDGE
     N. COPERNICUS UNIVERSITY AND JACKSON STATE UNIVERSITY:
          MARIA BARYSZ
     UNIVERSITY OF COPENHAGEN: Jimmy Kromann, CASPER STEINMANN
     TOKYO INSTITUTE OF TECHNOLOGY: HIROYA NAKATA
     NAGOYA UNIVERSITY: YOSHIO NISHIMOTO, STEPHAN IRLE
     MOSCOW STATE UNIVERSITY: VLADIMIR MIRONOV
     A.N.NESMEYANOV INSTITUTE OF ORGANOELEMENT COMPOUNDS OF RUSSIAN ACADEMY OF SCIENCES:
          IGOR S. GERASIMOV
     JOHANNES KEPLER UNIVERSITY LINZ:
          CHRISTIAN FRIEDL


 PARALLEL VERSION RUNNING ON        2 PROCESSORS IN        1 NODES.

 EXECUTION OF GAMESS BEGUN Wed Feb  3 18:56:32 2021

            ECHO OF THE FIRST FEW INPUT CARDS -
 INPUT CARD> $CONTRL                                                                        
 INPUT CARD>     SCFTYP=ROHF                                                                
 INPUT CARD>     MULT=1                                                                     
 INPUT CARD>     ICHARG=0                                                                   
 INPUT CARD>     RUNTYP=energy                                                              
 INPUT CARD>     MAXIT=200                                                                  
 INPUT CARD>     PP=READ                                                                    
 INPUT CARD>     ISPHER=1                                                                   
 INPUT CARD>     UNITS=ANGS                                                                 
 INPUT CARD> $END                                                                           
 INPUT CARD>                                                                                
 INPUT CARD> $SYSTEM                                                                        
 INPUT CARD>    MWORDS=1000                                                                 
 INPUT CARD>    MEMDDI=1000                                                                 
 INPUT CARD> $END                                                                           
 INPUT CARD>                                                                                
 INPUT CARD> $GUESS                                                                         
 INPUT CARD>     GUESS=HUCKEL                                                               
 INPUT CARD> $END                                                                           
 INPUT CARD>                                                                                
 INPUT CARD> $SCF DAMP=.T. SOSCF=.F. SHIFT=.T. RSTRCT=.T. DIIS=.T.  $END                    
 INPUT CARD>                                                                                
 INPUT CARD>                                                                                
 INPUT CARD>! $MCSCF                                                                        
 INPUT CARD>!      CISTEP=GUGA                                                              
 INPUT CARD>! $END                                                                          
 INPUT CARD>                                                                                
 INPUT CARD>! $CIDRT                                                                        
 INPUT CARD>!      NPRT=2                                                                   
 INPUT CARD>!      NFZC=0                                                                   
 INPUT CARD>!      NDOC=4                                                                   
 INPUT CARD>! !     NAOS=1                                                                  
 INPUT CARD>! !     NBOS=1                                                                  
 INPUT CARD>!      NVAL=30                                                                  
 INPUT CARD>!      IEXCIT=1                                                                 
 INPUT CARD>!      GROUP=C1                                                                 
 INPUT CARD>! $END                                                                          
 INPUT CARD>!                                                                               
 INPUT CARD>! $GUGDIA NSTATE=2 $END                                                         
 INPUT CARD>!                                                                               
 INPUT CARD>! $GUGDM NFLGDM(1)=1,1 IROOT=2 $END                                             
 INPUT CARD>!                                                                               
 INPUT CARD>! $GUGDIA PRTTOL=0.0001 $END                                                    
 INPUT CARD>                                                                                
 INPUT CARD>! $CIS                                                                          
 INPUT CARD>!      HAMTYP=SAPS MULT=1 NACORE=0 NSTATE=1 IROOT=1                             
 INPUT CARD>! $END                                                                          
 INPUT CARD>                                                                                
 INPUT CARD> $DATA                                                                          
 INPUT CARD>CH3 calculation                                                                 
 1000000000 WORDS OF MEMORY AVAILABLE


     RUN TITLE
     ---------
 CH3 calculation                                                                 

 THE POINT GROUP OF THE MOLECULE IS C1      
 THE ORDER OF THE PRINCIPAL AXIS IS     0

 ATOM      ATOMIC                      COORDINATES (BOHR)
           CHARGE         X                   Y                   Z
 C           6.0     0.0000000000        0.0000000000        1.1362922364
 C           6.0     0.0000000000        0.0000000000       -1.1362922364
 H           1.0     0.0000000000        0.0000000000        3.1452599340
 H           1.0     0.0000000000        0.0000000000       -3.1452599340

          INTERNUCLEAR DISTANCES (ANGS.)
          ------------------------------

                1 C          2 C          3 H          4 H     

   1 C       0.0000000    1.2026000 *  1.0631000 *  2.2657000 *
   2 C       1.2026000 *  0.0000000    2.2657000 *  1.0631000 *
   3 H       1.0631000 *  2.2657000 *  0.0000000    3.3288000  
   4 H       2.2657000 *  1.0631000 *  3.3288000    0.0000000  

  * ... LESS THAN  3.000


     ATOMIC BASIS SET
     ----------------
 THE CONTRACTED PRIMITIVE FUNCTIONS HAVE BEEN UNNORMALIZED
 THE CONTRACTED BASIS FUNCTIONS ARE NOW NORMALIZED TO UNITY

  SHELL TYPE  PRIMITIVE        EXPONENT          CONTRACTION COEFFICIENT(S)

 C         

      1   S       1            13.0735940    0.005158299799
      1   S       2             6.5411870    0.060342397643
      1   S       3             4.5734110   -0.197847092272
      1   S       4             1.6374940   -0.081033996835
      1   S       5             0.8192970    0.232172590931
      1   S       6             0.4099240    0.291464288615
      1   S       7             0.2313000    0.433640483061
      1   S       8             0.1026190    0.213193991672
      1   S       9             0.0513440    0.004984799805

      2   P      10             9.9341690    0.020907599209
      2   P      11             3.8869550    0.057269797835
      2   P      12             1.8710160    0.112268195755
      2   P      13             0.9357570    0.213008191946
      2   P      14             0.4680030    0.283581489278
      2   P      15             0.2394730    0.301120688615
      2   P      16             0.1170630    0.201693392374
      2   P      17             0.0585470    0.045357498285
      2   P      18             0.0292810    0.002977499887

      3   S      19             0.8468790    1.000000000000

      4   S      20             0.2696590    1.000000000000

      5   S      21             0.1095760    1.000000000000

      6   S      22             0.0438300    1.000000000000

      7   P      23             0.8046810    1.000000000000

      8   P      24             0.3132540    1.000000000000

      9   P      25             0.1053890    1.000000000000

     10   P      26             0.0421560    1.000000000000

     11   D      27             2.0137600    1.000000000000

     12   D      28             0.6848840    1.000000000000

     13   D      29             0.2401710    1.000000000000

     14   D      30             0.0960690    1.000000000000

     15   F      31             0.4573020    1.000000000000

     16   F      32             1.3249300    1.000000000000

     17   F      33             0.5299720    1.000000000000

     18   G      34             1.0341800    1.000000000000

     19   G      35             0.4136720    1.000000000000

 C         

     20   S      36            13.0735940    0.005158299799
     20   S      37             6.5411870    0.060342397643
     20   S      38             4.5734110   -0.197847092272
     20   S      39             1.6374940   -0.081033996835
     20   S      40             0.8192970    0.232172590931
     20   S      41             0.4099240    0.291464288615
     20   S      42             0.2313000    0.433640483061
     20   S      43             0.1026190    0.213193991672
     20   S      44             0.0513440    0.004984799805

     21   P      45             9.9341690    0.020907599209
     21   P      46             3.8869550    0.057269797835
     21   P      47             1.8710160    0.112268195755
     21   P      48             0.9357570    0.213008191946
     21   P      49             0.4680030    0.283581489278
     21   P      50             0.2394730    0.301120688615
     21   P      51             0.1170630    0.201693392374
     21   P      52             0.0585470    0.045357498285
     21   P      53             0.0292810    0.002977499887

     22   S      54             0.8468790    1.000000000000

     23   S      55             0.2696590    1.000000000000

     24   S      56             0.1095760    1.000000000000

     25   S      57             0.0438300    1.000000000000

     26   P      58             0.8046810    1.000000000000

     27   P      59             0.3132540    1.000000000000

     28   P      60             0.1053890    1.000000000000

     29   P      61             0.0421560    1.000000000000

     30   D      62             2.0137600    1.000000000000

     31   D      63             0.6848840    1.000000000000

     32   D      64             0.2401710    1.000000000000

     33   D      65             0.0960690    1.000000000000

     34   F      66             0.4573020    1.000000000000

     35   F      67             1.3249300    1.000000000000

     36   F      68             0.5299720    1.000000000000

     37   G      69             1.0341800    1.000000000000

     38   G      70             0.4136720    1.000000000000

 H         

     39   S      71            23.8431850    0.004114899701
     39   S      72            10.2124430    0.010464399240
     39   S      73             4.3741640    0.028011097966
     39   S      74             1.8735290    0.075886194491
     39   S      75             0.8024650    0.182106186780
     39   S      76             0.3437090    0.348521374698
     39   S      77             0.1472170    0.378231272542
     39   S      78             0.0630550    0.116424091548

     40   S      79             0.0287260    1.000000000000

     41   S      80             0.0818560    1.000000000000

     42   S      81             0.2332540    1.000000000000

     43   S      82             0.6646730    1.000000000000

     44   P      83             0.0955220    1.000000000000

     45   P      84             0.2844690    1.000000000000

     46   P      85             0.8471590    1.000000000000

     47   P      86             2.5228680    1.000000000000

     48   D      87             0.2160330    1.000000000000

     49   D      88             0.6652790    1.000000000000

     50   D      89             2.0487390    1.000000000000

     51   F      90             0.4446470    1.000000000000

     52   F      91             1.4214600    1.000000000000

 H         

     53   S      92            23.8431850    0.004114899701
     53   S      93            10.2124430    0.010464399240
     53   S      94             4.3741640    0.028011097966
     53   S      95             1.8735290    0.075886194491
     53   S      96             0.8024650    0.182106186780
     53   S      97             0.3437090    0.348521374698
     53   S      98             0.1472170    0.378231272542
     53   S      99             0.0630550    0.116424091548

     54   S     100             0.0287260    1.000000000000

     55   S     101             0.0818560    1.000000000000

     56   S     102             0.2332540    1.000000000000

     57   S     103             0.6646730    1.000000000000

     58   P     104             0.0955220    1.000000000000

     59   P     105             0.2844690    1.000000000000

     60   P     106             0.8471590    1.000000000000

     61   P     107             2.5228680    1.000000000000

     62   D     108             0.2160330    1.000000000000

     63   D     109             0.6652790    1.000000000000

     64   D     110             2.0487390    1.000000000000

     65   F     111             0.4446470    1.000000000000

     66   F     112             1.4214600    1.000000000000

 TOTAL NUMBER OF BASIS SET SHELLS             =   66
 NUMBER OF CARTESIAN GAUSSIAN BASIS FUNCTIONS =  318
 NOTE: THIS RUN WILL RESTRICT THE MO VARIATION SPACE TO SPHERICAL HARMONICS.
 THE NUMBER OF ORBITALS KEPT IN THE VARIATIONAL SPACE WILL BE PRINTED LATER.
 NUMBER OF ELECTRONS                          =   14
 CHARGE OF MOLECULE                           =    0
 SPIN MULTIPLICITY                            =    1
 NUMBER OF OCCUPIED ORBITALS (ALPHA)          =    7
 NUMBER OF OCCUPIED ORBITALS (BETA )          =    7
 TOTAL NUMBER OF ATOMS                        =    4
 THE NUCLEAR REPULSION ENERGY IS       24.7759035842
 NOTE THIS RUN IS USING CORE POTENTIALS, AND THE NUMBER OF ELECTRONS,
 OCCUPIED ORBITALS, AND NUCLEAR REPULSION ENERGY WILL BE ADJUSTED BELOW
 AFTER REMOVAL OF THE CORE CHARGES.

 THIS MOLECULE IS RECOGNIZED AS BEING LINEAR,
 ORBITAL LZ DEGENERACY TOLERANCE ETOLLZ= 1.00E-06

     $CONTRL OPTIONS
     ---------------
 SCFTYP=ROHF         RUNTYP=ENERGY       EXETYP=RUN     
 MPLEVL=       0     CITYP =NONE         CCTYP =NONE         VBTYP =NONE    
 DFTTYP=NONE         TDDFT =NONE    
 MULT  =       1     ICHARG=       0     NZVAR =       0     COORD =UNIQUE  
 PP    =READ         RELWFN=NONE         LOCAL =NONE         NUMGRD=       F
 ISPHER=       1     NOSYM =       0     MAXIT =     200     UNITS =ANGS    
 PLTORB=       F     MOLPLT=       F     AIMPAC=       F     FRIEND=        
 NPRINT=       7     IREST =       0     GEOM  =INPUT   
 NORMF =       0     NORMP =       0     ITOL  =      20     ICUT  =       9
 INTTYP=BEST         GRDTYP=BEST         QMTTOL= 1.0E-06

     $SYSTEM OPTIONS
     ---------------
  REPLICATED MEMORY=  1000000000 WORDS (ON EVERY NODE).
 DISTRIBUTED MEMDDI=        1000 MILLION WORDS IN AGGREGATE,
 MEMDDI DISTRIBUTED OVER   2 PROCESSORS IS   500000000 WORDS/PROCESSOR.
 TOTAL MEMORY REQUESTED ON EACH PROCESSOR=  1500000000 WORDS.
 TIMLIM=      525600.00 MINUTES, OR     365.0 DAYS.
 PARALL= T  BALTYP=  DLB     KDIAG=    0  COREFL= F
 MXSEQ2=     300 MXSEQ3=     150  mem10=         0

          --------------
          ECP POTENTIALS
          --------------

 PARAMETERS FOR "C-CCECP " ON ATOM    1 WITH ZCORE   2 AND LMAX  1 ARE
 FOR L= 1      COEFF    N           ZETA
    1        4.00000    1       14.43502
    2       57.74008    3        8.39889
    3      -25.81955    2        7.38188
 FOR L= 0      COEFF    N           ZETA
    1       52.13345    2        7.76079

 PARAMETERS FOR "C-CCECP " ON ATOM    2 ARE THE SAME AS ATOM   1

 PARAMETERS FOR "H-CCECP " ON ATOM    3 WITH ZCORE   0 AND LMAX  1 ARE
 FOR L= 1      COEFF    N           ZETA
    1        1.00000    1       21.24360
    2       21.24360    3       21.24360
    3      -10.85192    2       21.77697
 FOR L= 0      COEFF    N           ZETA
    1        0.00000    2        1.00000

 PARAMETERS FOR "H-CCECP " ON ATOM    4 ARE THE SAME AS ATOM   3

 THE ECP RUN REMOVES    4 CORE ELECTRONS, AND THE SAME NUMBER OF PROTONS.
 NUMBER OF ELECTRONS KEPT IN THE CALCULATION IS =   10
 NUMBER OF OCCUPIED ORBITALS (ALPHA) KEPT IS    =    5
 NUMBER OF OCCUPIED ORBITALS (BETA ) KEPT IS    =    5
 THE ADJUSTED NUCLEAR REPULSION ENERGY=       13.0500376648
          ECP ANGULAR INTS.........     0.02 SECONDS

          ----------------
          PROPERTIES INPUT
          ----------------

     MOMENTS            FIELD           POTENTIAL          DENSITY
 IEMOM =       1   IEFLD =       0   IEPOT =       0   IEDEN =       0
 WHERE =COMASS     WHERE =NUCLEI     WHERE =NUCLEI     WHERE =NUCLEI  
 OUTPUT=BOTH       OUTPUT=BOTH       OUTPUT=BOTH       OUTPUT=BOTH    
 IEMINT=       0   IEFINT=       0                     IEDINT=       0
                                                       MORB  =       0
          EXTRAPOLATION IN EFFECT
          DAMPING IN EFFECT
          LEVEL SHIFTING IN EFFECT
          RESTRICTION OF ORBITAL MIXING IN EFFECT
          DIIS IN EFFECT
 ORBITAL PRINTING OPTION: NPREO=     1   318     2     1

     -------------------------------
     INTEGRAL TRANSFORMATION OPTIONS
     -------------------------------
     NWORD  =            0
     CUTOFF = 1.0E-09     MPTRAN =       0
     DIRTRF =       F     AOINTS =DUP     

          ----------------------
          INTEGRAL INPUT OPTIONS
          ----------------------
 NOPK  =       1 NORDER=       0 SCHWRZ=       F

     ------------------------------------------
     THE POINT GROUP IS C1 , NAXIS= 0, ORDER= 1
     ------------------------------------------

 -- VARIATIONAL SPACE WILL BE RESTRICTED TO PURE SPHERICAL HARMONICS ONLY --
 AFTER EXCLUDING CONTAMINANT COMBINATIONS FROM THE CARTESIAN GAUSSIAN BASIS
 SET, THE NUMBER OF SPHERICAL HARMONICS KEPT IN THE VARIATION SPACE IS  250

     DIMENSIONS OF THE SYMMETRY SUBSPACES ARE
 A   =  250

 ..... DONE SETTING UP THE RUN .....
 CPU     0: STEP CPU TIME=     0.25 TOTAL CPU TIME=          0.3 (      0.0 MIN)
 TOTAL WALL CLOCK TIME=          0.5 SECONDS, CPU UTILIZATION IS    50.00%

          ********************
          1 ELECTRON INTEGRALS
          ********************
 TIME TO DO ORDINARY INTEGRALS=      0.05
 TIME TO DO      ECP INTEGRALS=      0.12
 ...... END OF ONE-ELECTRON INTEGRALS ......
 CPU     0: STEP CPU TIME=     0.18 TOTAL CPU TIME=          0.4 (      0.0 MIN)
 TOTAL WALL CLOCK TIME=          0.8 SECONDS, CPU UTILIZATION IS    54.43%

          -------------
          GUESS OPTIONS
          -------------
          GUESS =HUCKEL            NORB  =       0          NORDER=       0
          MIX   =       F          PRTMO =       F          PUNMO =       F
          TOLZ  = 1.0E-08          TOLE  = 1.0E-05
          SYMDEN=       F          PURIFY=       F

 INITIAL GUESS ORBITALS GENERATED BY HUCKEL   ROUTINE.
 HUCKEL GUESS REQUIRES    719244 WORDS.

 STATISTICS FOR GENERATION OF SYMMETRY ORBITAL -Q- MATRIX
 NUMBER OF CARTESIAN ATOMIC ORBITALS=        318
 NUMBER OF SPHERICAL CONTAMINANTS DROPPED=    68
 NUMBER OF LINEARLY DEPENDENT MOS DROPPED=     0
 TOTAL NUMBER OF MOS IN VARIATION SPACE=     250

                    * * * * * WARNING * * * * *
 POSSIBLE LINEAR DEPENDENCE PROBLEMS DETECTED, INPUT QMTTOL= 1.0E-06,
 WITH     2 OVERLAP EIGENVALUES LYING BETWEEN 1.0E-05 AND QMTTOL.
 IF YOU EXPERIENCE SCF CONVERGENCE DIFFICULTIES WITH THE DENSITY ALMOST BUT
 NOT QUITE CONVERGED, YOU MAY NEED TO LOOSEN -QMTTOL- BY A FACTOR 5 TO 10.

 SYMMETRIES FOR INITIAL GUESS ORBITALS FOLLOW.  ALPHA SET(S).
     5 ORBITALS ARE OCCUPIED (    0 CORE ORBITALS).
     1=A        2=A        3=A        4=A        5=A        6=A        7=A   
     8=A        9=A       10=A       11=A       12=A       13=A       14=A   
    15=A   

 SYMMETRIES FOR INITIAL GUESS ORBITALS FOLLOW.   BETA SET(S).
     5 ORBITALS ARE OCCUPIED (    0 CORE ORBITALS).
     1=A        2=A        3=A        4=A        5=A        6=A        7=A   
     8=A        9=A       10=A       11=A       12=A       13=A       14=A   
    15=A   
 ...... END OF INITIAL ORBITAL SELECTION ......
 CPU     0: STEP CPU TIME=     0.18 TOTAL CPU TIME=          0.6 (      0.0 MIN)
 TOTAL WALL CLOCK TIME=          1.2 SECONDS, CPU UTILIZATION IS    50.00%

                    ----------------------
                    AO INTEGRAL TECHNOLOGY
                    ----------------------
     S,P,L SHELL ROTATED AXIS INTEGRALS, REPROGRAMMED BY
        KAZUYA ISHIMURA (IMS) AND JOSE SIERRA (SYNSTAR).
     S,P,D,L SHELL ROTATED AXIS INTEGRALS PROGRAMMED BY
        KAZUYA ISHIMURA (INSTITUTE FOR MOLECULAR SCIENCE).
     S,P,D,F,G SHELL TO TOTAL QUARTET ANGULAR MOMENTUM SUM 5,
        ERIC PROGRAM BY GRAHAM FLETCHER (ELORET AND NASA ADVANCED
        SUPERCOMPUTING DIVISION, AMES RESEARCH CENTER).
     S,P,D,F,G,L SHELL GENERAL RYS QUADRATURE PROGRAMMED BY
        MICHEL DUPUIS (PACIFIC NORTHWEST NATIONAL LABORATORY).

          --------------------
          2 ELECTRON INTEGRALS
          --------------------

 THE -PK- OPTION IS OFF, THE INTEGRALS ARE NOT IN SUPERMATRIX FORM.
 STORING   15000 INTEGRALS/RECORD ON DISK, USING 16 BYTES/INTEGRAL.
 TWO ELECTRON INTEGRAL EVALUATION REQUIRES  141936 WORDS OF MEMORY.
 II,JST,KST,LST =  1  1  1  1 NREC =         1 INTLOC =    1
 II,JST,KST,LST =  2  1  1  1 NREC =         1 INTLOC =    1
 II,JST,KST,LST =  3  1  1  1 NREC =         1 INTLOC =    1
 II,JST,KST,LST =  4  1  1  1 NREC =         1 INTLOC =   18
 II,JST,KST,LST =  5  1  1  1 NREC =         1 INTLOC =   51
 II,JST,KST,LST =  6  1  1  1 NREC =         1 INTLOC =  109
 II,JST,KST,LST =  7  1  1  1 NREC =         1 INTLOC =  204
 II,JST,KST,LST =  8  1  1  1 NREC =         1 INTLOC =  267
 II,JST,KST,LST =  9  1  1  1 NREC =         1 INTLOC =  507
 II,JST,KST,LST = 10  1  1  1 NREC =         1 INTLOC =  963
 II,JST,KST,LST = 11  1  1  1 NREC =         1 INTLOC = 1731
 II,JST,KST,LST = 12  1  1  1 NREC =         1 INTLOC = 5472
 II,JST,KST,LST = 13  1  1  1 NREC =         1 INTLOC =10476
 II,JST,KST,LST = 14  1  1  1 NREC =         2 INTLOC = 3825
 II,JST,KST,LST = 15  1  1  1 NREC =         3 INTLOC = 3831
 II,JST,KST,LST = 16  1  1  1 NREC =         6 INTLOC = 6067
 II,JST,KST,LST = 17  1  1  1 NREC =        10 INTLOC =14712
 II,JST,KST,LST = 18  1  1  1 NREC =        18 INTLOC =12407
 II,JST,KST,LST = 19  1  1  1 NREC =        34 INTLOC = 5861
 II,JST,KST,LST = 20  1  1  1 NREC =        63 INTLOC =10076
 II,JST,KST,LST = 21  1  1  1 NREC =        67 INTLOC =13420
 II,JST,KST,LST = 22  1  1  1 NREC =        85 INTLOC = 3224
 II,JST,KST,LST = 23  1  1  1 NREC =        96 INTLOC = 9962
 II,JST,KST,LST = 24  1  1  1 NREC =       108 INTLOC = 7097
 II,JST,KST,LST = 25  1  1  1 NREC =       115 INTLOC = 6709
 II,JST,KST,LST = 26  1  1  1 NREC =       123 INTLOC = 3174
 II,JST,KST,LST = 27  1  1  1 NREC =       146 INTLOC = 1386
 II,JST,KST,LST = 28  1  1  1 NREC =       172 INTLOC = 6669
 II,JST,KST,LST = 29  1  1  1 NREC =       189 INTLOC = 5452
 II,JST,KST,LST = 30  1  1  1 NREC =       218 INTLOC = 8002
 II,JST,KST,LST = 31  1  1  1 NREC =       279 INTLOC =10312
 II,JST,KST,LST = 32  1  1  1 NREC =       332 INTLOC = 1266
 II,JST,KST,LST = 33  1  1  1 NREC =       393 INTLOC = 2107
 II,JST,KST,LST = 34  1  1  1 NREC =       459 INTLOC = 7398
 II,JST,KST,LST = 35  1  1  1 NREC =       640 INTLOC = 7509
 II,JST,KST,LST = 36  1  1  1 NREC =       799 INTLOC = 9908
 II,JST,KST,LST = 37  1  1  1 NREC =       996 INTLOC = 8624
 II,JST,KST,LST = 38  1  1  1 NREC =      1421 INTLOC =11231
 II,JST,KST,LST = 39  1  1  1 NREC =      1889 INTLOC =14594
 II,JST,KST,LST = 40  1  1  1 NREC =      1935 INTLOC = 7114
 II,JST,KST,LST = 41  1  1  1 NREC =      1970 INTLOC =12597
 II,JST,KST,LST = 42  1  1  1 NREC =      2008 INTLOC = 9390
 II,JST,KST,LST = 43  1  1  1 NREC =      2052 INTLOC =10997
 II,JST,KST,LST = 44  1  1  1 NREC =      2090 INTLOC =10958
 II,JST,KST,LST = 45  1  1  1 NREC =      2248 INTLOC = 2165
 II,JST,KST,LST = 46  1  1  1 NREC =      2382 INTLOC = 8192
 II,JST,KST,LST = 47  1  1  1 NREC =      2518 INTLOC = 1066
 II,JST,KST,LST = 48  1  1  1 NREC =      2657 INTLOC =11326
 II,JST,KST,LST = 49  1  1  1 NREC =      2971 INTLOC = 6350
 II,JST,KST,LST = 50  1  1  1 NREC =      3305 INTLOC =  550
 II,JST,KST,LST = 51  1  1  1 NREC =      3654 INTLOC = 4849
 II,JST,KST,LST = 52  1  1  1 NREC =      4284 INTLOC =12540
 II,JST,KST,LST = 53  1  1  1 NREC =      5042 INTLOC = 7850
 II,JST,KST,LST = 54  1  1  1 NREC =      5119 INTLOC = 8987
 II,JST,KST,LST = 55  1  1  1 NREC =      5206 INTLOC = 9679
 II,JST,KST,LST = 56  1  1  1 NREC =      5284 INTLOC =12786
 II,JST,KST,LST = 57  1  1  1 NREC =      5365 INTLOC = 9949
 II,JST,KST,LST = 58  1  1  1 NREC =      5457 INTLOC =11506
 II,JST,KST,LST = 59  1  1  1 NREC =      5703 INTLOC = 4615
 II,JST,KST,LST = 60  1  1  1 NREC =      5954 INTLOC = 7886
 II,JST,KST,LST = 61  1  1  1 NREC =      6189 INTLOC = 9815
 II,JST,KST,LST = 62  1  1  1 NREC =      6427 INTLOC = 2749
 II,JST,KST,LST = 63  1  1  1 NREC =      6997 INTLOC = 2656
 II,JST,KST,LST = 64  1  1  1 NREC =      7588 INTLOC = 7538
 II,JST,KST,LST = 65  1  1  1 NREC =      8129 INTLOC = 9015
 II,JST,KST,LST = 66  1  1  1 NREC =      9204 INTLOC = 6472
 TOTAL NUMBER OF NONZERO TWO-ELECTRON INTEGRALS =           311565723
      20772 INTEGRAL RECORDS WERE STORED ON DISK FILE  8.
  ...... END OF TWO-ELECTRON INTEGRALS .....
 CPU     0: STEP CPU TIME=    18.43 TOTAL CPU TIME=         19.0 (      0.3 MIN)
 TOTAL WALL CLOCK TIME=         19.9 SECONDS, CPU UTILIZATION IS    95.68%

          ---------------------------
                 ROHF SCF CALCULATION
          ---------------------------

     NUCLEAR ENERGY =        13.0500376648
     MAXIT =200     NPUNCH=  2     MULT=  1
     EXTRAP=T  DAMP=T  SHIFT=T  RSTRCT=T  DIIS=T  SOSCF=F
     DENSITY MATRIX CONV=  1.00E-05
     ROHF CANONICALIZATION PARAMETERS
             C-C     O-O     V-V
     ALPHA -0.5000  0.5000  1.5000
     BETA   1.5000  0.5000 -0.5000
     MEMORY REQUIRED FOR UHF/ROHF ITERS=    965526 WORDS.

 ITER EX      TOTAL ENERGY        E CHANGE  DENSITY CHANGE    DIIS ERROR      VIR. SHIFT       DAMPING
   1  0      -11.7333711587   -11.7333711587   1.974348687   1.168246565     0.000000000     1.000000000
          * * *   INITIATING DIIS PROCEDURE   * * *
   2  1      -12.1064580544    -0.3730868957   0.125758070   0.059459072     0.000000000     1.000000000
   3  2      -12.1147848943    -0.0083268400   0.037491230   0.016938338     0.000000000     1.000000000
   4  3      -12.1157884043    -0.0010035099   0.010169474   0.006510747     0.000000000     1.000000000
   5  4      -12.1159577932    -0.0001693889   0.004605494   0.001826099     0.000000000     1.000000000
   6  5      -12.1159694076    -0.0000116144   0.000404316   0.000088916     0.000000000     1.000000000
   7  6      -12.1159694456    -0.0000000380   0.000036138   0.000008536     0.000000000     1.000000000
   8  7      -12.1159694460    -0.0000000004   0.000003022   0.000001364     0.000000000     1.000000000
   9  8      -12.1159694460    -0.0000000000   0.000001626   0.000000151     0.000000000     1.000000000

          -----------------
          DENSITY CONVERGED
          -----------------
     TIME TO FORM FOCK OPERATORS=      20.0 SECONDS (       2.2 SEC/ITER)
     TIME TO SOLVE SCF EQUATIONS=       1.2 SECONDS (       0.1 SEC/ITER)

 FINAL ROHF ENERGY IS      -12.1159694460 AFTER   9 ITERATIONS

          --------------------
          SPIN SZ   =    0.000
          S-SQUARED =    0.000
          --------------------

 LZ VALUE ANALYSIS FOR THE MOS
 ----------------------------------------
 MO     1 (    1) HAS LZ(WEIGHT)= 0.00(100.0%) 
 MO     2 (    2) HAS LZ(WEIGHT)= 0.00(100.0%) 
 MO     3 (    3) HAS LZ(WEIGHT)= 0.00(100.0%) 
 MO     4 (    4) HAS LZ(WEIGHT)=-1.00( 50.0%)  1.00( 50.0%) 
 MO     5 (    4) HAS LZ(WEIGHT)=-1.00( 50.0%)  1.00( 50.0%) 
 MO     6 (    5) HAS LZ(WEIGHT)=-1.00( 50.0%)  1.00( 50.0%) 
 MO     7 (    5) HAS LZ(WEIGHT)=-1.00( 50.0%)  1.00( 50.0%) 
 MO     8 (    6) HAS LZ(WEIGHT)= 0.00(100.0%) 
 MO     9 (    7) HAS LZ(WEIGHT)= 0.00(100.0%) 
 MO    10 (    8) HAS LZ(WEIGHT)= 0.00(100.0%) 
 MO    11 (    9) HAS LZ(WEIGHT)= 0.00(100.0%) 
 MO    12 (   10) HAS LZ(WEIGHT)= 0.00(100.0%) 
 MO    13 (   11) HAS LZ(WEIGHT)= 0.00(100.0%) 
 MO    14 (   12) HAS LZ(WEIGHT)= 0.00(100.0%) 
 MO    15 (   13) HAS LZ(WEIGHT)= 0.00(100.0%) 
 MO    16 (   14) HAS LZ(WEIGHT)= 0.00(100.0%) 
 MO    17 (   15) HAS LZ(WEIGHT)= 0.00(100.0%) 
 MO    18 (   16) HAS LZ(WEIGHT)=-1.00( 50.0%)  1.00( 50.0%) 
 MO    19 (   16) HAS LZ(WEIGHT)=-1.00( 50.0%)  1.00( 50.0%) 
 MO    20 (   17) HAS LZ(WEIGHT)= 0.00(100.0%) 
 MO    21 (   18) HAS LZ(WEIGHT)= 0.00(100.0%) 
 MO    22 (   19) HAS LZ(WEIGHT)=-1.00( 50.0%)  1.00( 50.0%) 
 MO    23 (   19) HAS LZ(WEIGHT)=-1.00( 50.0%)  1.00( 50.0%) 
 MO    24 (   20) HAS LZ(WEIGHT)= 0.00(100.0%) 
 MO    25 (   21) HAS LZ(WEIGHT)=-1.00( 50.0%)  1.00( 50.0%) 
 MO    26 (   21) HAS LZ(WEIGHT)=-1.00( 50.0%)  1.00( 50.0%) 
 MO    27 (   22) HAS LZ(WEIGHT)=-2.00( 50.0%)  2.00( 50.0%) 
 MO    28 (   22) HAS LZ(WEIGHT)=-2.00( 50.0%)  2.00( 50.0%) 
 MO    29 (   23) HAS LZ(WEIGHT)= 0.00(100.0%) 
 MO    30 (   24) HAS LZ(WEIGHT)= 0.00(100.0%) 
 MO    31 (   25) HAS LZ(WEIGHT)=-1.00( 50.0%)  1.00( 50.0%) 
 MO    32 (   25) HAS LZ(WEIGHT)=-1.00( 50.0%)  1.00( 50.0%) 
 MO    33 (   26) HAS LZ(WEIGHT)= 0.00(100.0%) 
 MO    34 (   27) HAS LZ(WEIGHT)= 0.00(100.0%) 
 MO    35 (   28) HAS LZ(WEIGHT)=-1.00( 50.0%)  1.00( 50.0%) 
 MO    36 (   28) HAS LZ(WEIGHT)=-1.00( 50.0%)  1.00( 50.0%) 
 MO    37 (   29) HAS LZ(WEIGHT)=-1.00( 50.0%)  1.00( 50.0%) 
 MO    38 (   29) HAS LZ(WEIGHT)=-1.00( 50.0%)  1.00( 50.0%) 
 MO    39 (   30) HAS LZ(WEIGHT)= 0.00(100.0%) 
 MO    40 (   31) HAS LZ(WEIGHT)=-1.00( 50.0%)  1.00( 50.0%) 
 MO    41 (   31) HAS LZ(WEIGHT)=-1.00( 50.0%)  1.00( 50.0%) 
 MO    42 (   32) HAS LZ(WEIGHT)= 0.00(100.0%) 
 MO    43 (   33) HAS LZ(WEIGHT)= 0.00(100.0%) 
 MO    44 (   34) HAS LZ(WEIGHT)= 0.00(100.0%) 
 MO    45 (   35) HAS LZ(WEIGHT)=-3.00( 50.0%)  3.00( 50.0%) 
 MO    46 (   35) HAS LZ(WEIGHT)=-3.00( 50.0%)  3.00( 50.0%) 
 MO    47 (   36) HAS LZ(WEIGHT)=-1.00( 50.0%)  1.00( 50.0%) 
 MO    48 (   36) HAS LZ(WEIGHT)=-1.00( 50.0%)  1.00( 50.0%) 
 MO    49 (   37) HAS LZ(WEIGHT)=-2.00( 50.0%)  2.00( 50.0%) 
 MO    50 (   37) HAS LZ(WEIGHT)=-2.00( 50.0%)  2.00( 50.0%) 
 MO    51 (   38) HAS LZ(WEIGHT)= 0.00(100.0%) 
 MO    52 (   39) HAS LZ(WEIGHT)= 0.00(100.0%) 
 MO    53 (   40) HAS LZ(WEIGHT)=-1.00( 50.0%)  1.00( 50.0%) 
 MO    54 (   40) HAS LZ(WEIGHT)=-1.00( 50.0%)  1.00( 50.0%) 
 MO    55 (   41) HAS LZ(WEIGHT)= 0.00(100.0%) 
 MO    56 (   42) HAS LZ(WEIGHT)=-1.00( 50.0%)  1.00( 50.0%) 
 MO    57 (   42) HAS LZ(WEIGHT)=-1.00( 50.0%)  1.00( 50.0%) 
 MO    58 (   43) HAS LZ(WEIGHT)= 0.00(100.0%) 
 MO    59 (   44) HAS LZ(WEIGHT)=-3.00( 50.0%)  3.00( 50.0%) 
 MO    60 (   44) HAS LZ(WEIGHT)=-3.00( 50.0%)  3.00( 50.0%) 
 MO    61 (   45) HAS LZ(WEIGHT)=-1.00( 50.0%)  1.00( 50.0%) 
 MO    62 (   45) HAS LZ(WEIGHT)=-1.00( 50.0%)  1.00( 50.0%) 
 MO    63 (   46) HAS LZ(WEIGHT)=-1.00( 50.0%)  1.00( 50.0%) 
 MO    64 (   46) HAS LZ(WEIGHT)=-1.00( 50.0%)  1.00( 50.0%) 
 MO    65 (   47) HAS LZ(WEIGHT)=-2.00( 50.0%)  2.00( 50.0%) 
 MO    66 (   47) HAS LZ(WEIGHT)=-2.00( 50.0%)  2.00( 50.0%) 
 MO    67 (   48) HAS LZ(WEIGHT)= 0.00(100.0%) 
 MO    68 (   49) HAS LZ(WEIGHT)= 0.00(100.0%) 
 MO    69 (   50) HAS LZ(WEIGHT)= 0.00(100.0%) 
 MO    70 (   51) HAS LZ(WEIGHT)=-2.00( 50.0%)  2.00( 50.0%) 
 MO    71 (   51) HAS LZ(WEIGHT)=-2.00( 50.0%)  2.00( 50.0%) 
 MO    72 (   52) HAS LZ(WEIGHT)=-1.00( 50.0%)  1.00( 50.0%) 
 MO    73 (   52) HAS LZ(WEIGHT)=-1.00( 50.0%)  1.00( 50.0%) 
 MO    74 (   53) HAS LZ(WEIGHT)= 0.00(100.0%) 
 MO    75 (   54) HAS LZ(WEIGHT)=-1.00( 50.0%)  1.00( 50.0%) 
 MO    76 (   54) HAS LZ(WEIGHT)=-1.00( 50.0%)  1.00( 50.0%) 
 MO    77 (   55) HAS LZ(WEIGHT)= 0.00(100.0%) 
 MO    78 (   56) HAS LZ(WEIGHT)=-1.00( 50.0%)  1.00( 50.0%) 
 MO    79 (   56) HAS LZ(WEIGHT)=-1.00( 50.0%)  1.00( 50.0%) 
 MO    80 (   57) HAS LZ(WEIGHT)=-2.00( 50.0%)  2.00( 50.0%) 
 MO    81 (   57) HAS LZ(WEIGHT)=-2.00( 50.0%)  2.00( 50.0%) 
 MO    82 (   58) HAS LZ(WEIGHT)= 0.00(100.0%) 
 MO    83 (   59) HAS LZ(WEIGHT)= 0.00(100.0%) 
 MO    84 (   60) HAS LZ(WEIGHT)= 0.00(100.0%) 
 MO    85 (   61) HAS LZ(WEIGHT)= 0.00(100.0%) 
 MO    86 (   62) HAS LZ(WEIGHT)=-3.00( 50.0%)  3.00( 50.0%) 
 MO    87 (   62) HAS LZ(WEIGHT)=-3.00( 50.0%)  3.00( 50.0%) 
 MO    88 (   63) HAS LZ(WEIGHT)=-2.00( 50.0%)  2.00( 50.0%) 
 MO    89 (   63) HAS LZ(WEIGHT)=-2.00( 50.0%)  2.00( 50.0%) 
 MO    90 (   64) HAS LZ(WEIGHT)=-1.00( 50.0%)  1.00( 50.0%) 
 MO    91 (   64) HAS LZ(WEIGHT)=-1.00( 50.0%)  1.00( 50.0%) 
 MO    92 (   65) HAS LZ(WEIGHT)= 0.00(100.0%) 
 MO    93 (   66) HAS LZ(WEIGHT)=-2.00( 50.0%)  2.00( 50.0%) 
 MO    94 (   66) HAS LZ(WEIGHT)=-2.00( 50.0%)  2.00( 50.0%) 
 MO    95 (   67) HAS LZ(WEIGHT)=-1.00( 50.0%)  1.00( 50.0%) 
 MO    96 (   67) HAS LZ(WEIGHT)=-1.00( 50.0%)  1.00( 50.0%) 
 MO    97 (   68) HAS LZ(WEIGHT)= 0.00(100.0%) 
 MO    98 (   69) HAS LZ(WEIGHT)=-1.00( 50.0%)  1.00( 50.0%) 
 MO    99 (   69) HAS LZ(WEIGHT)=-1.00( 50.0%)  1.00( 50.0%) 
 MO   100 (   70) HAS LZ(WEIGHT)= 0.00(100.0%) 
 MO   101 (   71) HAS LZ(WEIGHT)=-1.00( 50.0%)  1.00( 50.0%) 
 MO   102 (   71) HAS LZ(WEIGHT)=-1.00( 50.0%)  1.00( 50.0%) 
 MO   103 (   72) HAS LZ(WEIGHT)=-2.00( 50.0%)  2.00( 50.0%) 
 MO   104 (   72) HAS LZ(WEIGHT)=-2.00( 50.0%)  2.00( 50.0%) 
 MO   105 (   73) HAS LZ(WEIGHT)=-1.00( 50.0%)  1.00( 50.0%) 
 MO   106 (   73) HAS LZ(WEIGHT)=-1.00( 50.0%)  1.00( 50.0%) 
 MO   107 (   74) HAS LZ(WEIGHT)=-2.00( 50.0%)  2.00( 50.0%) 
 MO   108 (   74) HAS LZ(WEIGHT)=-2.00( 50.0%)  2.00( 50.0%) 
 MO   109 (   75) HAS LZ(WEIGHT)=-1.00( 50.0%)  1.00( 50.0%) 
 MO   110 (   75) HAS LZ(WEIGHT)=-1.00( 50.0%)  1.00( 50.0%) 
 MO   111 (   76) HAS LZ(WEIGHT)= 0.00(100.0%) 
 MO   112 (   77) HAS LZ(WEIGHT)= 0.00(100.0%) 
 MO   113 (   78) HAS LZ(WEIGHT)= 0.00(100.0%) 
 MO   114 (   79) HAS LZ(WEIGHT)=-1.00( 50.0%)  1.00( 50.0%) 
 MO   115 (   79) HAS LZ(WEIGHT)=-1.00( 50.0%)  1.00( 50.0%) 
 MO   116 (   80) HAS LZ(WEIGHT)=-3.00( 50.0%)  3.00( 50.0%) 
 MO   117 (   80) HAS LZ(WEIGHT)=-3.00( 50.0%)  3.00( 50.0%) 
 MO   118 (   81) HAS LZ(WEIGHT)=-2.00( 50.0%)  2.00( 50.0%) 
 MO   119 (   81) HAS LZ(WEIGHT)=-2.00( 50.0%)  2.00( 50.0%) 
 MO   120 (   82) HAS LZ(WEIGHT)= 0.00(100.0%) 
 MO   121 (   83) HAS LZ(WEIGHT)=-2.00( 50.0%)  2.00( 50.0%) 
 MO   122 (   83) HAS LZ(WEIGHT)=-2.00( 50.0%)  2.00( 50.0%) 
 MO   123 (   84) HAS LZ(WEIGHT)=-1.00( 50.0%)  1.00( 50.0%) 
 MO   124 (   84) HAS LZ(WEIGHT)=-1.00( 50.0%)  1.00( 50.0%) 
 MO   125 (   85) HAS LZ(WEIGHT)= 0.00(100.0%) 
 MO   126 (   86) HAS LZ(WEIGHT)=-1.00( 50.0%)  1.00( 50.0%) 
 MO   127 (   86) HAS LZ(WEIGHT)=-1.00( 50.0%)  1.00( 50.0%) 
 MO   128 (   87) HAS LZ(WEIGHT)=-2.00( 50.0%)  2.00( 50.0%) 
 MO   129 (   87) HAS LZ(WEIGHT)=-2.00( 50.0%)  2.00( 50.0%) 
 MO   130 (   88) HAS LZ(WEIGHT)= 0.00(100.0%) 
 MO   131 (   89) HAS LZ(WEIGHT)=-4.00( 50.0%)  4.00( 50.0%) 
 MO   132 (   89) HAS LZ(WEIGHT)=-4.00( 50.0%)  4.00( 50.0%) 
 MO   133 (   90) HAS LZ(WEIGHT)=-3.00( 50.0%)  3.00( 50.0%) 
 MO   134 (   90) HAS LZ(WEIGHT)=-3.00( 50.0%)  3.00( 50.0%) 
 MO   135 (   91) HAS LZ(WEIGHT)=-1.00( 50.0%)  1.00( 50.0%) 
 MO   136 (   91) HAS LZ(WEIGHT)=-1.00( 50.0%)  1.00( 50.0%) 
 MO   137 (   92) HAS LZ(WEIGHT)=-1.00( 50.0%)  1.00( 50.0%) 
 MO   138 (   92) HAS LZ(WEIGHT)=-1.00( 50.0%)  1.00( 50.0%) 
 MO   139 (   93) HAS LZ(WEIGHT)= 0.00(100.0%) 
 MO   140 (   94) HAS LZ(WEIGHT)= 0.00(100.0%) 
 MO   141 (   95) HAS LZ(WEIGHT)=-2.00( 50.0%)  2.00( 50.0%) 
 MO   142 (   95) HAS LZ(WEIGHT)=-2.00( 50.0%)  2.00( 50.0%) 
 MO   143 (   96) HAS LZ(WEIGHT)=-2.00( 50.0%)  2.00( 50.0%) 
 MO   144 (   96) HAS LZ(WEIGHT)=-2.00( 50.0%)  2.00( 50.0%) 
 MO   145 (   97) HAS LZ(WEIGHT)= 0.00(100.0%) 
 MO   146 (   98) HAS LZ(WEIGHT)=-1.00( 50.0%)  1.00( 50.0%) 
 MO   147 (   98) HAS LZ(WEIGHT)=-1.00( 50.0%)  1.00( 50.0%) 
 MO   148 (   99) HAS LZ(WEIGHT)=-4.00( 50.0%)  4.00( 50.0%) 
 MO   149 (   99) HAS LZ(WEIGHT)=-4.00( 50.0%)  4.00( 50.0%) 
 MO   150 (  100) HAS LZ(WEIGHT)=-1.00( 50.0%)  1.00( 50.0%) 
 MO   151 (  100) HAS LZ(WEIGHT)=-1.00( 50.0%)  1.00( 50.0%) 
 MO   152 (  101) HAS LZ(WEIGHT)= 0.00(100.0%) 
 MO   153 (  102) HAS LZ(WEIGHT)=-1.00( 50.0%)  1.00( 50.0%) 
 MO   154 (  102) HAS LZ(WEIGHT)=-1.00( 50.0%)  1.00( 50.0%) 
 MO   155 (  103) HAS LZ(WEIGHT)=-2.00( 50.0%)  2.00( 50.0%) 
 MO   156 (  103) HAS LZ(WEIGHT)=-2.00( 50.0%)  2.00( 50.0%) 
 MO   157 (  104) HAS LZ(WEIGHT)=-3.00( 50.0%)  3.00( 50.0%) 
 MO   158 (  104) HAS LZ(WEIGHT)=-3.00( 50.0%)  3.00( 50.0%) 
 MO   159 (  105) HAS LZ(WEIGHT)=-1.00( 50.0%)  1.00( 50.0%) 
 MO   160 (  105) HAS LZ(WEIGHT)=-1.00( 50.0%)  1.00( 50.0%) 
 MO   161 (  106) HAS LZ(WEIGHT)=-2.00( 50.0%)  2.00( 50.0%) 
 MO   162 (  106) HAS LZ(WEIGHT)=-2.00( 50.0%)  2.00( 50.0%) 
 MO   163 (  107) HAS LZ(WEIGHT)=-3.00( 50.0%)  3.00( 50.0%) 
 MO   164 (  107) HAS LZ(WEIGHT)=-3.00( 50.0%)  3.00( 50.0%) 
 MO   165 (  108) HAS LZ(WEIGHT)=-3.00( 50.0%)  3.00( 50.0%) 
 MO   166 (  108) HAS LZ(WEIGHT)=-3.00( 50.0%)  3.00( 50.0%) 
 MO   167 (  109) HAS LZ(WEIGHT)=-2.00( 50.0%)  2.00( 50.0%) 
 MO   168 (  109) HAS LZ(WEIGHT)=-2.00( 50.0%)  2.00( 50.0%) 
 MO   169 (  110) HAS LZ(WEIGHT)=-3.00( 50.0%)  3.00( 50.0%) 
 MO   170 (  110) HAS LZ(WEIGHT)=-3.00( 50.0%)  3.00( 50.0%) 
 MO   171 (  111) HAS LZ(WEIGHT)=-1.00( 50.0%)  1.00( 50.0%) 
 MO   172 (  111) HAS LZ(WEIGHT)=-1.00( 50.0%)  1.00( 50.0%) 
 MO   173 (  112) HAS LZ(WEIGHT)= 0.00(100.0%) 
 MO   174 (  113) HAS LZ(WEIGHT)=-1.00( 50.0%)  1.00( 50.0%) 
 MO   175 (  113) HAS LZ(WEIGHT)=-1.00( 50.0%)  1.00( 50.0%) 
 MO   176 (  114) HAS LZ(WEIGHT)= 0.00(100.0%) 
 MO   177 (  115) HAS LZ(WEIGHT)=-2.00( 50.0%)  2.00( 50.0%) 
 MO   178 (  115) HAS LZ(WEIGHT)=-2.00( 50.0%)  2.00( 50.0%) 
 MO   179 (  116) HAS LZ(WEIGHT)=-2.00( 50.0%)  2.00( 50.0%) 
 MO   180 (  116) HAS LZ(WEIGHT)=-2.00( 50.0%)  2.00( 50.0%) 
 MO   181 (  117) HAS LZ(WEIGHT)= 0.00(100.0%) 
 MO   182 (  118) HAS LZ(WEIGHT)=-1.00( 50.0%)  1.00( 50.0%) 
 MO   183 (  118) HAS LZ(WEIGHT)=-1.00( 50.0%)  1.00( 50.0%) 
 MO   184 (  119) HAS LZ(WEIGHT)=-3.00( 50.0%)  3.00( 50.0%) 
 MO   185 (  119) HAS LZ(WEIGHT)=-3.00( 50.0%)  3.00( 50.0%) 
 MO   186 (  120) HAS LZ(WEIGHT)=-2.00( 50.0%)  2.00( 50.0%) 
 MO   187 (  120) HAS LZ(WEIGHT)=-2.00( 50.0%)  2.00( 50.0%) 
 MO   188 (  121) HAS LZ(WEIGHT)= 0.00(100.0%) 
 MO   189 (  122) HAS LZ(WEIGHT)= 0.00(100.0%) 
 MO   190 (  123) HAS LZ(WEIGHT)=-2.00( 50.0%)  2.00( 50.0%) 
 MO   191 (  123) HAS LZ(WEIGHT)=-2.00( 50.0%)  2.00( 50.0%) 
 MO   192 (  124) HAS LZ(WEIGHT)=-1.00( 50.0%)  1.00( 50.0%) 
 MO   193 (  124) HAS LZ(WEIGHT)=-1.00( 50.0%)  1.00( 50.0%) 
 MO   194 (  125) HAS LZ(WEIGHT)= 0.00(100.0%) 
 MO   195 (  126) HAS LZ(WEIGHT)=-3.00( 50.0%)  3.00( 50.0%) 
 MO   196 (  126) HAS LZ(WEIGHT)=-3.00( 50.0%)  3.00( 50.0%) 
 MO   197 (  127) HAS LZ(WEIGHT)=-4.00( 50.0%)  4.00( 50.0%) 
 MO   198 (  127) HAS LZ(WEIGHT)=-4.00( 50.0%)  4.00( 50.0%) 
 MO   199 (  128) HAS LZ(WEIGHT)= 0.00(100.0%) 
 MO   200 (  129) HAS LZ(WEIGHT)=-1.00( 50.0%)  1.00( 50.0%) 
 MO   201 (  129) HAS LZ(WEIGHT)=-1.00( 50.0%)  1.00( 50.0%) 
 MO   202 (  130) HAS LZ(WEIGHT)= 0.00(100.0%) 
 MO   203 (  131) HAS LZ(WEIGHT)= 0.00(100.0%) 
 MO   204 (  132) HAS LZ(WEIGHT)=-1.00( 50.0%)  1.00( 50.0%) 
 MO   205 (  132) HAS LZ(WEIGHT)=-1.00( 50.0%)  1.00( 50.0%) 
 MO   206 (  133) HAS LZ(WEIGHT)=-2.00( 50.0%)  2.00( 50.0%) 
 MO   207 (  133) HAS LZ(WEIGHT)=-2.00( 50.0%)  2.00( 50.0%) 
 MO   208 (  134) HAS LZ(WEIGHT)= 0.00(100.0%) 
 MO   209 (  135) HAS LZ(WEIGHT)=-1.00( 50.0%)  1.00( 50.0%) 
 MO   210 (  135) HAS LZ(WEIGHT)=-1.00( 50.0%)  1.00( 50.0%) 
 MO   211 (  136) HAS LZ(WEIGHT)=-2.00( 50.0%)  2.00( 50.0%) 
 MO   212 (  136) HAS LZ(WEIGHT)=-2.00( 50.0%)  2.00( 50.0%) 
 MO   213 (  137) HAS LZ(WEIGHT)= 0.00(100.0%) 
 MO   214 (  138) HAS LZ(WEIGHT)= 0.00(100.0%) 
 MO   215 (  139) HAS LZ(WEIGHT)=-4.00( 50.0%)  4.00( 50.0%) 
 MO   216 (  139) HAS LZ(WEIGHT)=-4.00( 50.0%)  4.00( 50.0%) 
 MO   217 (  140) HAS LZ(WEIGHT)=-1.00( 50.0%)  1.00( 50.0%) 
 MO   218 (  140) HAS LZ(WEIGHT)=-1.00( 50.0%)  1.00( 50.0%) 
 MO   219 (  141) HAS LZ(WEIGHT)=-1.00( 50.0%)  1.00( 50.0%) 
 MO   220 (  141) HAS LZ(WEIGHT)=-1.00( 50.0%)  1.00( 50.0%) 
 MO   221 (  142) HAS LZ(WEIGHT)= 0.00(100.0%) 
 MO   222 (  143) HAS LZ(WEIGHT)=-2.00( 50.0%)  2.00( 50.0%) 
 MO   223 (  143) HAS LZ(WEIGHT)=-2.00( 50.0%)  2.00( 50.0%) 
 MO   224 (  144) HAS LZ(WEIGHT)=-3.00( 50.0%)  3.00( 50.0%) 
 MO   225 (  144) HAS LZ(WEIGHT)=-3.00( 50.0%)  3.00( 50.0%) 
 MO   226 (  145) HAS LZ(WEIGHT)=-1.00( 50.0%)  1.00( 50.0%) 
 MO   227 (  145) HAS LZ(WEIGHT)=-1.00( 50.0%)  1.00( 50.0%) 
 MO   228 (  146) HAS LZ(WEIGHT)=-2.00( 50.0%)  2.00( 50.0%) 
 MO   229 (  146) HAS LZ(WEIGHT)=-2.00( 50.0%)  2.00( 50.0%) 
 MO   230 (  147) HAS LZ(WEIGHT)= 0.00(100.0%) 
 MO   231 (  148) HAS LZ(WEIGHT)=-1.00( 50.0%)  1.00( 50.0%) 
 MO   232 (  148) HAS LZ(WEIGHT)=-1.00( 50.0%)  1.00( 50.0%) 
 MO   233 (  149) HAS LZ(WEIGHT)= 0.00(100.0%) 
 MO   234 (  150) HAS LZ(WEIGHT)=-3.00( 50.0%)  3.00( 50.0%) 
 MO   235 (  150) HAS LZ(WEIGHT)=-3.00( 50.0%)  3.00( 50.0%) 
 MO   236 (  151) HAS LZ(WEIGHT)=-1.00( 50.0%)  1.00( 50.0%) 
 MO   237 (  151) HAS LZ(WEIGHT)=-1.00( 50.0%)  1.00( 50.0%) 
 MO   238 (  152) HAS LZ(WEIGHT)= 0.00(100.0%) 
 MO   239 (  153) HAS LZ(WEIGHT)=-3.00( 50.0%)  3.00( 50.0%) 
 MO   240 (  153) HAS LZ(WEIGHT)=-3.00( 50.0%)  3.00( 50.0%) 
 MO   241 (  154) HAS LZ(WEIGHT)=-2.00( 50.0%)  2.00( 50.0%) 
 MO   242 (  154) HAS LZ(WEIGHT)=-2.00( 50.0%)  2.00( 50.0%) 
 MO   243 (  155) HAS LZ(WEIGHT)=-1.00( 50.0%)  1.00( 50.0%) 
 MO   244 (  155) HAS LZ(WEIGHT)=-1.00( 50.0%)  1.00( 50.0%) 
 MO   245 (  156) HAS LZ(WEIGHT)=-1.00( 50.0%)  1.00( 50.0%) 
 MO   246 (  156) HAS LZ(WEIGHT)=-1.00( 50.0%)  1.00( 50.0%) 
 MO   247 (  157) HAS LZ(WEIGHT)=-2.00( 50.0%)  2.00( 50.0%) 
 MO   248 (  157) HAS LZ(WEIGHT)=-2.00( 50.0%)  2.00( 50.0%) 
 MO   249 (  158) HAS LZ(WEIGHT)=-2.00( 50.0%)  2.00( 50.0%) 
 MO   250 (  158) HAS LZ(WEIGHT)=-2.00( 50.0%)  2.00( 50.0%) 

          ------------
          EIGENVECTORS
          ------------

                      1          2          3          4          5
                   -1.0394    -0.7708    -0.6824    -0.4111    -0.4111
                     A          A          A          A          A   
    1  C  1  S    0.702730   0.464730  -0.017886   0.000000  -0.000000
    2  C  1  X    0.000000   0.000000  -0.000000   0.271002   0.548277
    3  C  1  Y    0.000000   0.000000   0.000000   0.548277  -0.271002
    4  C  1  Z   -0.268863   0.312079  -0.611224  -0.000000  -0.000000
    5  C  1  S   -0.012512  -0.011758   0.002732   0.000000   0.000000
    6  C  1  S   -0.122586  -0.000232  -0.034745  -0.000000  -0.000000
    7  C  1  S   -0.007069   0.026533   0.107412  -0.000001  -0.000001
    8  C  1  S    0.022831  -0.034277   0.018924  -0.000000  -0.000001
    9  C  1  X   -0.000000  -0.000000   0.000000  -0.002388  -0.004832
   10  C  1  Y   -0.000000  -0.000000  -0.000000  -0.004832   0.002388
   11  C  1  Z    0.008425  -0.004363   0.005435   0.000000  -0.000000
   12  C  1  X   -0.000000  -0.000000  -0.000000  -0.009351  -0.018919
   13  C  1  Y   -0.000000   0.000000  -0.000000  -0.018919   0.009351
   14  C  1  Z    0.079656  -0.015992   0.085498  -0.000000   0.000000
   15  C  1  X   -0.000000  -0.000000  -0.000000  -0.005518  -0.011163
   16  C  1  Y   -0.000000   0.000000  -0.000000  -0.011163   0.005518
   17  C  1  Z    0.084707  -0.101888   0.184175   0.000000   0.000001
   18  C  1  X   -0.000000  -0.000000  -0.000000   0.000851   0.001721
   19  C  1  Y   -0.000000   0.000000   0.000000   0.001721  -0.000851
   20  C  1  Z    0.025041  -0.000963   0.029271   0.000000   0.000000
   21  C  1 XX   -0.003304  -0.001858  -0.000260  -0.000000  -0.000000
   22  C  1 YY   -0.003304  -0.001858  -0.000260  -0.000000  -0.000000
   23  C  1 ZZ    0.006607   0.003716   0.000519   0.000000   0.000000
   24  C  1 XY    0.000000   0.000000   0.000000   0.000000   0.000000
   25  C  1 XZ   -0.000000  -0.000000  -0.000000  -0.002326  -0.004705
   26  C  1 YZ    0.000000  -0.000000  -0.000000  -0.004705   0.002326
   27  C  1 XX   -0.011971  -0.009721   0.000302   0.000000   0.000000
   28  C  1 YY   -0.011971  -0.009721   0.000302   0.000000   0.000000
   29  C  1 ZZ    0.023943   0.019443  -0.000605  -0.000000  -0.000000
   30  C  1 XY    0.000000  -0.000000   0.000000   0.000000  -0.000000
   31  C  1 XZ    0.000000   0.000000   0.000000  -0.009677  -0.019578
   32  C  1 YZ    0.000000   0.000000   0.000000  -0.019578   0.009677
   33  C  1 XX   -0.017449  -0.009071   0.002398   0.000000   0.000000
   34  C  1 YY   -0.017449  -0.009071   0.002398   0.000000   0.000000
   35  C  1 ZZ    0.034898   0.018142  -0.004797  -0.000000  -0.000000
   36  C  1 XY    0.000000  -0.000000  -0.000000   0.000000  -0.000000
   37  C  1 XZ    0.000000   0.000000   0.000000  -0.006383  -0.012913
   38  C  1 YZ    0.000000   0.000000   0.000000  -0.012913   0.006383
   39  C  1 XX   -0.001270  -0.000051   0.007707   0.000000   0.000000
   40  C  1 YY   -0.001270  -0.000051   0.007707   0.000000   0.000000
   41  C  1 ZZ    0.002540   0.000102  -0.015414  -0.000000  -0.000000
   42  C  1 XY   -0.000000   0.000000   0.000000  -0.000000   0.000000
   43  C  1 XZ    0.000000   0.000000   0.000000   0.000894   0.001809
   44  C  1 YZ    0.000000  -0.000000   0.000000   0.001809  -0.000894
   45  C  1 XXX  -0.000000  -0.000000   0.000000  -0.004051  -0.008195
   46  C  1 YYY  -0.000000  -0.000000  -0.000000  -0.008195   0.004051
   47  C  1 ZZZ  -0.010959   0.012290  -0.012299   0.000000   0.000000
   48  C  1 XXY  -0.000000   0.000000   0.000000  -0.003665   0.001811
   49  C  1 XXZ   0.007352  -0.008245   0.008250  -0.000000  -0.000000
   50  C  1 YYX   0.000000  -0.000000   0.000000  -0.001811  -0.003665
   51  C  1 YYZ   0.007352  -0.008245   0.008250  -0.000000  -0.000000
   52  C  1 ZZX   0.000000   0.000000  -0.000000   0.007246   0.014659
   53  C  1 ZZY   0.000000   0.000000  -0.000000   0.014659  -0.007246
   54  C  1 XYZ  -0.000000   0.000000   0.000000  -0.000000   0.000000
   55  C  1 XXX  -0.000000  -0.000000   0.000000  -0.001166  -0.002359
   56  C  1 YYY   0.000000   0.000000   0.000000  -0.002359   0.001166
   57  C  1 ZZZ  -0.002124   0.001778  -0.004916  -0.000000   0.000000
   58  C  1 XXY   0.000000   0.000000   0.000000  -0.001055   0.000522
   59  C  1 XXZ   0.001425  -0.001193   0.003298   0.000000  -0.000000
   60  C  1 YYX   0.000000   0.000000   0.000000  -0.000522  -0.001055
   61  C  1 YYZ   0.001425  -0.001193   0.003298   0.000000  -0.000000
   62  C  1 ZZX   0.000000   0.000000   0.000000   0.002086   0.004220
   63  C  1 ZZY   0.000000  -0.000000  -0.000000   0.004220  -0.002086
   64  C  1 XYZ   0.000000   0.000000   0.000000  -0.000000   0.000000
   65  C  1 XXX   0.000000   0.000000  -0.000000   0.002051   0.004150
   66  C  1 YYY   0.000000   0.000000   0.000000   0.004150  -0.002051
   67  C  1 ZZZ   0.010187  -0.007198   0.008465  -0.000000   0.000000
   68  C  1 XXY   0.000000  -0.000000  -0.000000   0.001856  -0.000917
   69  C  1 XXZ  -0.006834   0.004829  -0.005678   0.000000  -0.000000
   70  C  1 YYX  -0.000000   0.000000  -0.000000   0.000917   0.001856
   71  C  1 YYZ  -0.006834   0.004829  -0.005678   0.000000  -0.000000
   72  C  1 ZZX   0.000000  -0.000000   0.000000  -0.003669  -0.007423
   73  C  1 ZZY  -0.000000  -0.000000   0.000000  -0.007423   0.003669
   74  C  1 XYZ   0.000000  -0.000000  -0.000000   0.000000  -0.000000
   75  C  1XXXX   0.000657   0.000481   0.000376  -0.000000  -0.000000
   76  C  1YYYY   0.000657   0.000481   0.000376  -0.000000  -0.000000
   77  C  1ZZZZ   0.001751   0.001282   0.001004  -0.000000  -0.000000
   78  C  1XXXY   0.000000   0.000000   0.000000   0.000000   0.000000
   79  C  1XXXZ   0.000000   0.000000   0.000000   0.000778   0.001574
   80  C  1YYYX   0.000000   0.000000   0.000000   0.000000   0.000000
   81  C  1YYYZ  -0.000000  -0.000000  -0.000000   0.001574  -0.000778
   82  C  1ZZZX   0.000000   0.000000   0.000000  -0.001037  -0.002098
   83  C  1ZZZY   0.000000   0.000000   0.000000  -0.002098   0.001037
   84  C  1XXYY   0.000384   0.000281   0.000220  -0.000000  -0.000000
   85  C  1XXZZ  -0.001538  -0.001126  -0.000881   0.000000   0.000000
   86  C  1YYZZ  -0.001538  -0.001126  -0.000881   0.000000   0.000000
   87  C  1XXYZ  -0.000000  -0.000000  -0.000000   0.000704  -0.000348
   88  C  1YYXZ   0.000000   0.000000   0.000000   0.000348   0.000704
   89  C  1ZZXY  -0.000000   0.000000   0.000000   0.000000   0.000000
   90  C  1XXXX   0.000235  -0.000787   0.000081   0.000000   0.000000
   91  C  1YYYY   0.000235  -0.000787   0.000081   0.000000   0.000000
   92  C  1ZZZZ   0.000627  -0.002098   0.000216   0.000000   0.000000
   93  C  1XXXY  -0.000000   0.000000   0.000000   0.000000   0.000000
   94  C  1XXXZ  -0.000000  -0.000000  -0.000000   0.000034   0.000068
   95  C  1YYYX  -0.000000   0.000000   0.000000   0.000000   0.000000
   96  C  1YYYZ   0.000000   0.000000  -0.000000   0.000068  -0.000034
   97  C  1ZZZX   0.000000   0.000000   0.000000  -0.000045  -0.000091
   98  C  1ZZZY  -0.000000  -0.000000   0.000000  -0.000091   0.000045
   99  C  1XXYY   0.000138  -0.000461   0.000048   0.000000   0.000000
  100  C  1XXZZ  -0.000551   0.001843  -0.000190  -0.000000  -0.000000
  101  C  1YYZZ  -0.000551   0.001843  -0.000190  -0.000000  -0.000000
  102  C  1XXYZ   0.000000   0.000000  -0.000000   0.000031  -0.000015
  103  C  1YYXZ  -0.000000  -0.000000  -0.000000   0.000015   0.000031
  104  C  1ZZXY   0.000000  -0.000000  -0.000000  -0.000000  -0.000000
  105  C  2  S    0.702730  -0.464730  -0.017886   0.000000  -0.000000
  106  C  2  X    0.000000   0.000000   0.000000   0.271002   0.548277
  107  C  2  Y    0.000000  -0.000000  -0.000000   0.548277  -0.271002
  108  C  2  Z    0.268863   0.312079   0.611224  -0.000000   0.000000
  109  C  2  S   -0.012512   0.011758   0.002732  -0.000000  -0.000000
  110  C  2  S   -0.122586   0.000232  -0.034745   0.000000   0.000000
  111  C  2  S   -0.007069  -0.026533   0.107412   0.000000   0.000001
  112  C  2  S    0.022831   0.034277   0.018924   0.000000   0.000001
  113  C  2  X    0.000000   0.000000   0.000000  -0.002388  -0.004832
  114  C  2  Y   -0.000000   0.000000   0.000000  -0.004832   0.002388
  115  C  2  Z   -0.008425  -0.004363  -0.005435  -0.000000  -0.000000
  116  C  2  X    0.000000   0.000000   0.000000  -0.009351  -0.018919
  117  C  2  Y   -0.000000  -0.000000   0.000000  -0.018919   0.009351
  118  C  2  Z   -0.079656  -0.015992  -0.085498   0.000000   0.000000
  119  C  2  X    0.000000   0.000000   0.000000  -0.005518  -0.011163
  120  C  2  Y    0.000000  -0.000000   0.000000  -0.011163   0.005518
  121  C  2  Z   -0.084707  -0.101888  -0.184175   0.000000   0.000001
  122  C  2  X    0.000000   0.000000   0.000000   0.000851   0.001721
  123  C  2  Y    0.000000  -0.000000  -0.000000   0.001721  -0.000851
  124  C  2  Z   -0.025041  -0.000963  -0.029271   0.000000   0.000000
  125  C  2 XX   -0.003304   0.001858  -0.000260   0.000000   0.000000
  126  C  2 YY   -0.003304   0.001858  -0.000260   0.000000   0.000000
  127  C  2 ZZ    0.006607  -0.003716   0.000519  -0.000000  -0.000000
  128  C  2 XY    0.000000   0.000000   0.000000   0.000000  -0.000000
  129  C  2 XZ    0.000000   0.000000  -0.000000   0.002326   0.004705
  130  C  2 YZ   -0.000000  -0.000000  -0.000000   0.004705  -0.002326
  131  C  2 XX   -0.011971   0.009721   0.000302  -0.000000  -0.000000
  132  C  2 YY   -0.011971   0.009721   0.000302  -0.000000  -0.000000
  133  C  2 ZZ    0.023943  -0.019443  -0.000605   0.000000   0.000000
  134  C  2 XY   -0.000000   0.000000   0.000000   0.000000   0.000000
  135  C  2 XZ    0.000000   0.000000   0.000000   0.009677   0.019578
  136  C  2 YZ    0.000000   0.000000   0.000000   0.019578  -0.009677
  137  C  2 XX   -0.017449   0.009071   0.002398  -0.000000  -0.000000
  138  C  2 YY   -0.017449   0.009071   0.002398  -0.000000  -0.000000
  139  C  2 ZZ    0.034898  -0.018142  -0.004797   0.000000   0.000000
  140  C  2 XY   -0.000000   0.000000   0.000000  -0.000000   0.000000
  141  C  2 XZ    0.000000   0.000000   0.000000   0.006383   0.012913
  142  C  2 YZ    0.000000   0.000000   0.000000   0.012913  -0.006383
  143  C  2 XX   -0.001270   0.000051   0.007707  -0.000000  -0.000000
  144  C  2 YY   -0.001270   0.000051   0.007707  -0.000000  -0.000000
  145  C  2 ZZ    0.002540  -0.000102  -0.015414   0.000000   0.000000
  146  C  2 XY    0.000000   0.000000  -0.000000   0.000000  -0.000000
  147  C  2 XZ    0.000000   0.000000   0.000000  -0.000894  -0.001809
  148  C  2 YZ    0.000000  -0.000000   0.000000  -0.001809   0.000894
  149  C  2 XXX  -0.000000  -0.000000  -0.000000  -0.004051  -0.008195
  150  C  2 YYY  -0.000000   0.000000   0.000000  -0.008195   0.004051
  151  C  2 ZZZ   0.010959   0.012290   0.012299  -0.000000   0.000000
  152  C  2 XXY  -0.000000   0.000000   0.000000  -0.003665   0.001811
  153  C  2 XXZ  -0.007352  -0.008245  -0.008250   0.000000  -0.000000
  154  C  2 YYX  -0.000000  -0.000000  -0.000000  -0.001811  -0.003665
  155  C  2 YYZ  -0.007352  -0.008245  -0.008250   0.000000  -0.000000
  156  C  2 ZZX   0.000000   0.000000   0.000000   0.007246   0.014659
  157  C  2 ZZY   0.000000  -0.000000  -0.000000   0.014659  -0.007246
  158  C  2 XYZ  -0.000000   0.000000   0.000000  -0.000000   0.000000
  159  C  2 XXX   0.000000  -0.000000  -0.000000  -0.001166  -0.002359
  160  C  2 YYY  -0.000000   0.000000   0.000000  -0.002359   0.001166
  161  C  2 ZZZ   0.002124   0.001778   0.004916   0.000000  -0.000000
  162  C  2 XXY   0.000000   0.000000   0.000000  -0.001055   0.000522
  163  C  2 XXZ  -0.001425  -0.001193  -0.003298  -0.000000   0.000000
  164  C  2 YYX   0.000000   0.000000   0.000000  -0.000522  -0.001055
  165  C  2 YYZ  -0.001425  -0.001193  -0.003298  -0.000000   0.000000
  166  C  2 ZZX   0.000000   0.000000   0.000000   0.002086   0.004220
  167  C  2 ZZY   0.000000  -0.000000  -0.000000   0.004220  -0.002086
  168  C  2 XYZ  -0.000000   0.000000   0.000000  -0.000000   0.000000
  169  C  2 XXX   0.000000   0.000000   0.000000   0.002051   0.004150
  170  C  2 YYY   0.000000  -0.000000  -0.000000   0.004150  -0.002051
  171  C  2 ZZZ  -0.010187  -0.007198  -0.008465   0.000000   0.000000
  172  C  2 XXY   0.000000  -0.000000  -0.000000   0.001856  -0.000917
  173  C  2 XXZ   0.006834   0.004829   0.005678  -0.000000  -0.000000
  174  C  2 YYX   0.000000   0.000000   0.000000   0.000917   0.001856
  175  C  2 YYZ   0.006834   0.004829   0.005678  -0.000000  -0.000000
  176  C  2 ZZX  -0.000000  -0.000000  -0.000000  -0.003669  -0.007423
  177  C  2 ZZY  -0.000000   0.000000   0.000000  -0.007423   0.003669
  178  C  2 XYZ   0.000000  -0.000000  -0.000000   0.000000  -0.000000
  179  C  2XXXX   0.000657  -0.000481   0.000376   0.000000   0.000000
  180  C  2YYYY   0.000657  -0.000481   0.000376   0.000000   0.000000
  181  C  2ZZZZ   0.001751  -0.001282   0.001004   0.000000   0.000000
  182  C  2XXXY   0.000000   0.000000   0.000000   0.000000   0.000000
  183  C  2XXXZ   0.000000  -0.000000  -0.000000  -0.000778  -0.001574
  184  C  2YYYX   0.000000   0.000000   0.000000   0.000000   0.000000
  185  C  2YYYZ  -0.000000  -0.000000  -0.000000  -0.001574   0.000778
  186  C  2ZZZX  -0.000000   0.000000   0.000000   0.001037   0.002098
  187  C  2ZZZY   0.000000   0.000000   0.000000   0.002098  -0.001037
  188  C  2XXYY   0.000384  -0.000281   0.000220   0.000000   0.000000
  189  C  2XXZZ  -0.001538   0.001126  -0.000881  -0.000000  -0.000000
  190  C  2YYZZ  -0.001538   0.001126  -0.000881  -0.000000  -0.000000
  191  C  2XXYZ  -0.000000  -0.000000  -0.000000  -0.000704   0.000348
  192  C  2YYXZ   0.000000   0.000000  -0.000000  -0.000348  -0.000704
  193  C  2ZZXY   0.000000   0.000000   0.000000   0.000000  -0.000000
  194  C  2XXXX   0.000235   0.000787   0.000081  -0.000000  -0.000000
  195  C  2YYYY   0.000235   0.000787   0.000081  -0.000000  -0.000000
  196  C  2ZZZZ   0.000627   0.002098   0.000216  -0.000000  -0.000000
  197  C  2XXXY   0.000000  -0.000000   0.000000   0.000000  -0.000000
  198  C  2XXXZ  -0.000000  -0.000000   0.000000  -0.000034  -0.000068
  199  C  2YYYX   0.000000  -0.000000  -0.000000   0.000000  -0.000000
  200  C  2YYYZ  -0.000000  -0.000000  -0.000000  -0.000068   0.000034
  201  C  2ZZZX   0.000000   0.000000  -0.000000   0.000045   0.000091
  202  C  2ZZZY   0.000000   0.000000   0.000000   0.000091  -0.000045
  203  C  2XXYY   0.000138   0.000461   0.000048  -0.000000  -0.000000
  204  C  2XXZZ  -0.000551  -0.001843  -0.000190   0.000000   0.000000
  205  C  2YYZZ  -0.000551  -0.001843  -0.000190   0.000000   0.000000
  206  C  2XXYZ  -0.000000  -0.000000  -0.000000  -0.000031   0.000015
  207  C  2YYXZ  -0.000000  -0.000000   0.000000  -0.000015  -0.000031
  208  C  2ZZXY  -0.000000   0.000000   0.000000  -0.000000   0.000000
  209  H  3  S    0.183782   0.559330  -0.563353  -0.000000   0.000000
  210  H  3  S   -0.008331  -0.003399  -0.003048   0.000000  -0.000000
  211  H  3  S   -0.127523  -0.078581  -0.011581   0.000000  -0.000000
  212  H  3  S   -0.103924  -0.170542   0.121581   0.000000   0.000000
  213  H  3  S   -0.017784  -0.027665   0.018765   0.000000  -0.000000
  214  H  3  X   -0.000000  -0.000000  -0.000000  -0.000552  -0.001117
  215  H  3  Y   -0.000000  -0.000000  -0.000000  -0.001117   0.000552
  216  H  3  Z    0.018859  -0.008872   0.036895  -0.000000   0.000000
  217  H  3  X   -0.000000  -0.000000  -0.000000   0.004016   0.008125
  218  H  3  Y   -0.000000  -0.000000  -0.000000   0.008125  -0.004016
  219  H  3  Z    0.010767   0.002396   0.012752  -0.000000  -0.000000
  220  H  3  X   -0.000000  -0.000000  -0.000000   0.003476   0.007033
  221  H  3  Y    0.000000  -0.000000  -0.000000   0.007033  -0.003476
  222  H  3  Z   -0.000282  -0.011145   0.014830  -0.000000   0.000000
  223  H  3  X    0.000000   0.000000   0.000000   0.000740   0.001497
  224  H  3  Y    0.000000   0.000000   0.000000   0.001497  -0.000740
  225  H  3  Z   -0.001597  -0.003991   0.003822   0.000000  -0.000000
  226  H  3 XX    0.000815   0.000247   0.000912  -0.000000   0.000000
  227  H  3 YY    0.000815   0.000247   0.000912  -0.000000   0.000000
  228  H  3 ZZ   -0.001630  -0.000495  -0.001824   0.000000  -0.000000
  229  H  3 XY   -0.000000   0.000000   0.000000   0.000000  -0.000000
  230  H  3 XZ    0.000000   0.000000   0.000000   0.000514   0.001040
  231  H  3 YZ    0.000000   0.000000   0.000000   0.001040  -0.000514
  232  H  3 XX    0.000479  -0.000627   0.001036  -0.000000  -0.000000
  233  H  3 YY    0.000479  -0.000627   0.001036  -0.000000  -0.000000
  234  H  3 ZZ   -0.000959   0.001253  -0.002072   0.000000   0.000000
  235  H  3 XY    0.000000   0.000000   0.000000   0.000000  -0.000000
  236  H  3 XZ    0.000000   0.000000   0.000000  -0.001524  -0.003084
  237  H  3 YZ    0.000000   0.000000   0.000000  -0.003084   0.001524
  238  H  3 XX   -0.000115  -0.000582   0.000708  -0.000000   0.000000
  239  H  3 YY   -0.000115  -0.000582   0.000708  -0.000000  -0.000000
  240  H  3 ZZ    0.000230   0.001163  -0.001416   0.000000   0.000000
  241  H  3 XY    0.000000   0.000000   0.000000  -0.000000   0.000000
  242  H  3 XZ    0.000000  -0.000000   0.000000  -0.000477  -0.000964
  243  H  3 YZ    0.000000   0.000000  -0.000000  -0.000964   0.000477
  244  H  3 XXX  -0.000000  -0.000000  -0.000000  -0.000232  -0.000470
  245  H  3 YYY  -0.000000   0.000000   0.000000  -0.000470   0.000232
  246  H  3 ZZZ  -0.000061  -0.000670  -0.000007   0.000000  -0.000000
  247  H  3 XXY  -0.000000   0.000000   0.000000  -0.000210   0.000104
  248  H  3 XXZ   0.000041   0.000449   0.000004  -0.000000   0.000000
  249  H  3 YYX   0.000000  -0.000000  -0.000000  -0.000104  -0.000210
  250  H  3 YYZ   0.000041   0.000449   0.000004  -0.000000   0.000000
  251  H  3 ZZX   0.000000   0.000000   0.000000   0.000415   0.000840
  252  H  3 ZZY   0.000000  -0.000000  -0.000000   0.000840  -0.000415
  253  H  3 XYZ   0.000000  -0.000000   0.000000  -0.000000   0.000000
  254  H  3 XXX   0.000000   0.000000   0.000000  -0.000207  -0.000419
  255  H  3 YYY   0.000000   0.000000   0.000000  -0.000419   0.000207
  256  H  3 ZZZ  -0.000022  -0.000314   0.000289  -0.000000  -0.000000
  257  H  3 XXY   0.000000   0.000000   0.000000  -0.000187   0.000093
  258  H  3 XXZ   0.000015   0.000211  -0.000194   0.000000   0.000000
  259  H  3 YYX   0.000000   0.000000   0.000000  -0.000093  -0.000187
  260  H  3 YYZ   0.000015   0.000211  -0.000194   0.000000   0.000000
  261  H  3 ZZX  -0.000000  -0.000000  -0.000000   0.000370   0.000749
  262  H  3 ZZY  -0.000000  -0.000000  -0.000000   0.000749  -0.000370
  263  H  3 XYZ   0.000000   0.000000   0.000000   0.000000  -0.000000
  264  H  4  S    0.183782  -0.559330  -0.563353  -0.000000   0.000000
  265  H  4  S   -0.008331   0.003399  -0.003048   0.000000   0.000000
  266  H  4  S   -0.127523   0.078581  -0.011581   0.000000   0.000000
  267  H  4  S   -0.103924   0.170542   0.121581   0.000000  -0.000000
  268  H  4  S   -0.017784   0.027665   0.018765   0.000000   0.000000
  269  H  4  X    0.000000   0.000000   0.000000  -0.000552  -0.001117
  270  H  4  Y    0.000000   0.000000   0.000000  -0.001117   0.000552
  271  H  4  Z   -0.018859  -0.008872  -0.036895   0.000000   0.000000
  272  H  4  X    0.000000   0.000000  -0.000000   0.004016   0.008125
  273  H  4  Y    0.000000   0.000000   0.000000   0.008125  -0.004016
  274  H  4  Z   -0.010767   0.002396  -0.012752   0.000000  -0.000000
  275  H  4  X    0.000000   0.000000  -0.000000   0.003476   0.007033
  276  H  4  Y    0.000000   0.000000   0.000000   0.007033  -0.003476
  277  H  4  Z    0.000282  -0.011145  -0.014830   0.000000   0.000000
  278  H  4  X    0.000000  -0.000000   0.000000   0.000740   0.001497
  279  H  4  Y   -0.000000  -0.000000  -0.000000   0.001497  -0.000740
  280  H  4  Z    0.001597  -0.003991  -0.003822  -0.000000  -0.000000
  281  H  4 XX    0.000815  -0.000247   0.000912  -0.000000   0.000000
  282  H  4 YY    0.000815  -0.000247   0.000912  -0.000000   0.000000
  283  H  4 ZZ   -0.001630   0.000495  -0.001824   0.000000  -0.000000
  284  H  4 XY   -0.000000  -0.000000   0.000000  -0.000000  -0.000000
  285  H  4 XZ    0.000000   0.000000  -0.000000  -0.000514  -0.001040
  286  H  4 YZ    0.000000   0.000000   0.000000  -0.001040   0.000514
  287  H  4 XX    0.000479   0.000627   0.001036   0.000000   0.000000
  288  H  4 YY    0.000479   0.000627   0.001036   0.000000   0.000000
  289  H  4 ZZ   -0.000959  -0.001253  -0.002072  -0.000000  -0.000000
  290  H  4 XY   -0.000000   0.000000   0.000000  -0.000000   0.000000
  291  H  4 XZ   -0.000000   0.000000  -0.000000   0.001524   0.003084
  292  H  4 YZ    0.000000   0.000000   0.000000   0.003084  -0.001524
  293  H  4 XX   -0.000115   0.000582   0.000708   0.000000   0.000000
  294  H  4 YY   -0.000115   0.000582   0.000708   0.000000   0.000000
  295  H  4 ZZ    0.000230  -0.001163  -0.001416  -0.000000  -0.000000
  296  H  4 XY    0.000000   0.000000   0.000000   0.000000   0.000000
  297  H  4 XZ    0.000000   0.000000   0.000000   0.000477   0.000964
  298  H  4 YZ   -0.000000   0.000000  -0.000000   0.000964  -0.000477
  299  H  4 XXX   0.000000   0.000000   0.000000  -0.000232  -0.000470
  300  H  4 YYY  -0.000000  -0.000000   0.000000  -0.000470   0.000232
  301  H  4 ZZZ   0.000061  -0.000670   0.000007  -0.000000  -0.000000
  302  H  4 XXY  -0.000000  -0.000000  -0.000000  -0.000210   0.000104
  303  H  4 XXZ  -0.000041   0.000449  -0.000004   0.000000   0.000000
  304  H  4 YYX   0.000000   0.000000   0.000000  -0.000104  -0.000210
  305  H  4 YYZ  -0.000041   0.000449  -0.000004   0.000000   0.000000
  306  H  4 ZZX  -0.000000  -0.000000  -0.000000   0.000415   0.000840
  307  H  4 ZZY   0.000000   0.000000   0.000000   0.000840  -0.000415
  308  H  4 XYZ  -0.000000  -0.000000   0.000000  -0.000000   0.000000
  309  H  4 XXX   0.000000  -0.000000  -0.000000  -0.000207  -0.000419
  310  H  4 YYY  -0.000000  -0.000000  -0.000000  -0.000419   0.000207
  311  H  4 ZZZ   0.000022  -0.000314  -0.000289  -0.000000  -0.000000
  312  H  4 XXY  -0.000000   0.000000  -0.000000  -0.000187   0.000093
  313  H  4 XXZ  -0.000015   0.000211   0.000194   0.000000   0.000000
  314  H  4 YYX   0.000000  -0.000000   0.000000  -0.000093  -0.000187
  315  H  4 YYZ  -0.000015   0.000211   0.000194   0.000000   0.000000
  316  H  4 ZZX   0.000000   0.000000   0.000000   0.000370   0.000749
  317  H  4 ZZY   0.000000   0.000000   0.000000   0.000749  -0.000370
  318  H  4 XYZ   0.000000   0.000000   0.000000   0.000000  -0.000000

                      6          7          8          9         10
                    0.2025     0.2025     0.2841     0.6234     1.2268
                     A          A          A          A          A   
    1  C  1  S   -0.000000  -0.000000   0.321671   0.060636   0.177075
    2  C  1  X   -0.325028  -0.315524  -0.000000   0.000000   0.000000
    3  C  1  Y   -0.315524   0.325028  -0.000000  -0.000000   0.000000
    4  C  1  Z   -0.000000   0.000000   0.098892   0.462718  -0.849666
    5  C  1  S    0.000000  -0.000000   0.254667  -0.149072  -0.675805
    6  C  1  S   -0.000000   0.000001  -5.690842  -0.383136   6.075346
    7  C  1  S   -0.000001   0.000004 -63.775050  -3.003319 -22.854978
    8  C  1  S    0.000000   0.000001-144.477542  -0.291719  49.819046
    9  C  1  X    0.023037   0.022363  -0.000000   0.000000   0.000000
   10  C  1  Y    0.022363  -0.023037   0.000000   0.000000  -0.000000
   11  C  1  Z    0.000000   0.000000  -0.129777  -0.323246   0.682669
   12  C  1  X   -0.464370  -0.450792  -0.000000  -0.000000   0.000000
   13  C  1  Y   -0.450792   0.464370   0.000001  -0.000000  -0.000000
   14  C  1  Z    0.000000  -0.000000   3.132914   3.066204  -0.722287
   15  C  1  X    2.151636   2.088723  -0.000004  -0.000001  -0.000000
   16  C  1  Y    2.088723  -2.151636   0.000002  -0.000000  -0.000000
   17  C  1  Z    0.000001  -0.000002  36.522113  -6.889867 -13.135319
   18  C  1  X    2.146880   2.084106   0.000000   0.000000  -0.000000
   19  C  1  Y    2.084106  -2.146880  -0.000000   0.000000  -0.000000
   20  C  1  Z   -0.000000  -0.000000  42.517066  -3.988460 -16.281048
   21  C  1 XX   -0.000000   0.000000  -0.003599   0.007258   0.011125
   22  C  1 YY   -0.000000   0.000000  -0.003599   0.007258   0.011125
   23  C  1 ZZ    0.000000  -0.000000   0.007198  -0.014516  -0.022249
   24  C  1 XY   -0.000000   0.000000   0.000000  -0.000000  -0.000000
   25  C  1 XZ   -0.007547  -0.007326   0.000000   0.000000  -0.000000
   26  C  1 YZ   -0.007326   0.007547   0.000000  -0.000000   0.000000
   27  C  1 XX    0.000000  -0.000000   0.154989  -0.056191  -0.240500
   28  C  1 YY    0.000000  -0.000000   0.154989  -0.056191  -0.240500
   29  C  1 ZZ   -0.000000   0.000000  -0.309979   0.112382   0.480999
   30  C  1 XY    0.000000   0.000000  -0.000000   0.000000   0.000000
   31  C  1 XZ    0.021216   0.020595  -0.000000  -0.000000  -0.000000
   32  C  1 YZ    0.020595  -0.021216  -0.000000   0.000000  -0.000000
   33  C  1 XX    0.000000  -0.000000   0.896125  -1.065179   3.007014
   34  C  1 YY    0.000000  -0.000000   0.896125  -1.065179   3.007014
   35  C  1 ZZ   -0.000000   0.000000  -1.792249   2.130358  -6.014028
   36  C  1 XY    0.000000  -0.000000  -0.000000  -0.000000   0.000000
   37  C  1 XZ    0.591340   0.574049   0.000001   0.000000   0.000000
   38  C  1 YZ    0.574049  -0.591340  -0.000000   0.000000  -0.000000
   39  C  1 XX    0.000000  -0.000000   1.977703  -2.256199   2.282284
   40  C  1 YY    0.000000  -0.000000   1.977703  -2.256199   2.282284
   41  C  1 ZZ   -0.000000   0.000000  -3.955406   4.512399  -4.564568
   42  C  1 XY   -0.000000   0.000000   0.000000  -0.000000  -0.000000
   43  C  1 XZ   -1.733529  -1.682840   0.000002   0.000000   0.000000
   44  C  1 YZ   -1.682840   1.733529  -0.000003   0.000000   0.000000
   45  C  1 XXX   0.042501   0.041259   0.000000   0.000000  -0.000000
   46  C  1 YYY   0.041259  -0.042501   0.000000   0.000000  -0.000000
   47  C  1 ZZZ   0.000000  -0.000000   0.147642  -0.821021   0.274930
   48  C  1 XXY   0.018451  -0.019007   0.000000   0.000000   0.000000
   49  C  1 XXZ  -0.000000   0.000000  -0.099041   0.550758  -0.184428
   50  C  1 YYX   0.019007   0.018451   0.000000   0.000000  -0.000000
   51  C  1 YYZ  -0.000000   0.000000  -0.099041   0.550758  -0.184428
   52  C  1 ZZX  -0.076029  -0.073806  -0.000000  -0.000000   0.000000
   53  C  1 ZZY  -0.073806   0.076029  -0.000000  -0.000000   0.000000
   54  C  1 XYZ   0.000000   0.000000   0.000000  -0.000000  -0.000000
   55  C  1 XXX  -0.000646  -0.000628   0.000000   0.000000  -0.000000
   56  C  1 YYY  -0.000628   0.000646   0.000000   0.000000  -0.000000
   57  C  1 ZZZ   0.000000  -0.000000   0.003964  -0.029037  -0.005910
   58  C  1 XXY  -0.000281   0.000289   0.000000   0.000000   0.000000
   59  C  1 XXZ  -0.000000   0.000000  -0.002659   0.019478   0.003965
   60  C  1 YYX  -0.000289  -0.000281   0.000000   0.000000  -0.000000
   61  C  1 YYZ  -0.000000   0.000000  -0.002659   0.019478   0.003965
   62  C  1 ZZX   0.001156   0.001123  -0.000000  -0.000000   0.000000
   63  C  1 ZZY   0.001123  -0.001156  -0.000000  -0.000000   0.000000
   64  C  1 XYZ   0.000000   0.000000   0.000000   0.000000  -0.000000
   65  C  1 XXX   0.011819   0.011473  -0.000000  -0.000000   0.000000
   66  C  1 YYY   0.011473  -0.011819  -0.000000  -0.000000   0.000000
   67  C  1 ZZZ  -0.000000  -0.000000   0.064823   0.981519  -0.403949
   68  C  1 XXY   0.005131  -0.005285  -0.000000  -0.000000  -0.000000
   69  C  1 XXZ  -0.000000   0.000000  -0.043484  -0.658423   0.270977
   70  C  1 YYX   0.005285   0.005131  -0.000000  -0.000000   0.000000
   71  C  1 YYZ   0.000000   0.000000  -0.043484  -0.658423   0.270977
   72  C  1 ZZX  -0.021142  -0.020523   0.000000   0.000000  -0.000000
   73  C  1 ZZY  -0.020523   0.021142   0.000000   0.000000  -0.000000
   74  C  1 XYZ  -0.000000  -0.000000  -0.000000   0.000000   0.000000
   75  C  1XXXX   0.000000   0.000000  -0.003039   0.000423   0.008033
   76  C  1YYYY   0.000000   0.000000  -0.003039   0.000423   0.008033
   77  C  1ZZZZ   0.000000   0.000000  -0.008104   0.001127   0.021422
   78  C  1XXXY  -0.000000   0.000000  -0.000000  -0.000000   0.000000
   79  C  1XXXZ   0.001400   0.001360   0.000000   0.000000  -0.000000
   80  C  1YYYX   0.000000   0.000000  -0.000000   0.000000   0.000000
   81  C  1YYYZ   0.001360  -0.001400   0.000000   0.000000   0.000000
   82  C  1ZZZX  -0.001867  -0.001813  -0.000000  -0.000000   0.000000
   83  C  1ZZZY  -0.001813   0.001867  -0.000000  -0.000000  -0.000000
   84  C  1XXYY   0.000000   0.000000  -0.001780   0.000247   0.004704
   85  C  1XXZZ  -0.000000  -0.000000   0.007118  -0.000990  -0.018815
   86  C  1YYZZ  -0.000000  -0.000000   0.007118  -0.000990  -0.018815
   87  C  1XXYZ   0.000608  -0.000626   0.000000   0.000000   0.000000
   88  C  1YYXZ   0.000626   0.000608   0.000000   0.000000  -0.000000
   89  C  1ZZXY   0.000000  -0.000000   0.000000   0.000000  -0.000000
   90  C  1XXXX  -0.000000  -0.000000   0.039573   0.028604  -0.424730
   91  C  1YYYY  -0.000000  -0.000000   0.039573   0.028604  -0.424730
   92  C  1ZZZZ  -0.000000  -0.000000   0.105529   0.076277  -1.132612
   93  C  1XXXY  -0.000000  -0.000000   0.000000   0.000000  -0.000000
   94  C  1XXXZ  -0.031016  -0.030109  -0.000000  -0.000000  -0.000000
   95  C  1YYYX  -0.000000   0.000000   0.000000   0.000000  -0.000000
   96  C  1YYYZ  -0.030109   0.031016  -0.000000  -0.000000   0.000000
   97  C  1ZZZX   0.041355   0.040146   0.000000   0.000000   0.000000
   98  C  1ZZZY   0.040146  -0.041355   0.000000   0.000000  -0.000000
   99  C  1XXYY  -0.000000  -0.000000   0.023172   0.016749  -0.248696
  100  C  1XXZZ   0.000000   0.000000  -0.092687  -0.066994   0.994785
  101  C  1YYZZ   0.000000   0.000000  -0.092687  -0.066994   0.994785
  102  C  1XXYZ  -0.013465   0.013871  -0.000000  -0.000000   0.000000
  103  C  1YYXZ  -0.013871  -0.013465  -0.000000  -0.000000  -0.000000
  104  C  1ZZXY   0.000000   0.000000  -0.000000  -0.000000   0.000000
  105  C  2  S   -0.000000   0.000000  -0.321671   0.060636  -0.177075
  106  C  2  X    0.325028   0.315524   0.000000  -0.000000   0.000000
  107  C  2  Y    0.315524  -0.325028  -0.000000  -0.000000  -0.000000
  108  C  2  Z   -0.000000   0.000000   0.098892  -0.462718  -0.849666
  109  C  2  S   -0.000000   0.000000  -0.254667  -0.149072   0.675805
  110  C  2  S    0.000000  -0.000001   5.690841  -0.383136  -6.075346
  111  C  2  S    0.000001  -0.000004  63.775050  -3.003319  22.854978
  112  C  2  S   -0.000000  -0.000001 144.477542  -0.291719 -49.819046
  113  C  2  X   -0.023037  -0.022363   0.000000  -0.000000   0.000000
  114  C  2  Y   -0.022363   0.023037   0.000000  -0.000000  -0.000000
  115  C  2  Z    0.000000   0.000000  -0.129777   0.323246   0.682669
  116  C  2  X    0.464370   0.450792  -0.000000   0.000000   0.000000
  117  C  2  Y    0.450792  -0.464370   0.000000   0.000000  -0.000000
  118  C  2  Z    0.000000  -0.000000   3.132914  -3.066204  -0.722287
  119  C  2  X   -2.151636  -2.088723   0.000003   0.000001   0.000000
  120  C  2  Y   -2.088723   2.151636  -0.000003   0.000000   0.000000
  121  C  2  Z    0.000000  -0.000002  36.522113   6.889867 -13.135319
  122  C  2  X   -2.146880  -2.084106  -0.000000  -0.000000   0.000000
  123  C  2  Y   -2.084106   2.146880   0.000000  -0.000000   0.000000
  124  C  2  Z   -0.000000  -0.000000  42.517066   3.988460 -16.281048
  125  C  2 XX    0.000000  -0.000000   0.003599   0.007258  -0.011125
  126  C  2 YY    0.000000  -0.000000   0.003599   0.007258  -0.011125
  127  C  2 ZZ   -0.000000   0.000000  -0.007198  -0.014516   0.022249
  128  C  2 XY    0.000000  -0.000000  -0.000000   0.000000   0.000000
  129  C  2 XZ   -0.007547  -0.007326  -0.000000   0.000000  -0.000000
  130  C  2 YZ   -0.007326   0.007547   0.000000  -0.000000   0.000000
[...]

               ----- POPULATIONS IN EACH AO -----
                             MULLIKEN      LOWDIN
              1  C  1  S      1.58858     0.10305
              2  C  1  X      1.02440     0.19032
              3  C  1  Y      1.02440     0.19032
              4  C  1  Z      1.37084     0.24617
              5  C  1  S     -0.02380     0.04289
              6  C  1  S     -0.19610     0.08217
              7  C  1  S     -0.04882     0.05657
              8  C  1  S      0.00707     0.02240
              9  C  1  X     -0.00701     0.11809
             10  C  1  Y     -0.00701     0.11809
             11  C  1  Z     -0.01621     0.19035
             12  C  1  X     -0.03430     0.09202
             13  C  1  Y     -0.03430     0.09202
             14  C  1  Z     -0.19285     0.14001
             15  C  1  X     -0.01774     0.07353
             16  C  1  Y     -0.01774     0.07353
             17  C  1  Z     -0.27564     0.06273
             18  C  1  X      0.00171     0.02333
             19  C  1  Y      0.00171     0.02333
             20  C  1  Z     -0.01096     0.01717
             21  C  1 XX      0.00145     0.03281
             22  C  1 YY      0.00000     0.03281
             23  C  1 ZZ      0.00000     0.04593
             24  C  1 XY      0.00069     0.00000
             25  C  1 XZ      0.00069     0.00050
             26  C  1 YZ      0.00000     0.00050
             27  C  1 XX      0.01310     0.04030
             28  C  1 YY      0.00000     0.04030
             29  C  1 ZZ      0.00000     0.09529
             30  C  1 XY      0.00921     0.00000
             31  C  1 XZ      0.00921     0.00476
             32  C  1 YZ      0.00000     0.00476
             33  C  1 XX      0.01722     0.01255
             34  C  1 YY      0.00000     0.01255
             35  C  1 ZZ      0.00000     0.06414
             36  C  1 XY      0.00982     0.00000
             37  C  1 XZ      0.00982     0.01539
             38  C  1 YZ      0.00000     0.01539
             39  C  1 XX      0.01291     0.00081
             40  C  1 YY      0.00000     0.00081
             41  C  1 ZZ      0.00000     0.03810
             42  C  1 XY     -0.00112     0.00000
             43  C  1 XZ     -0.00112     0.01106
             44  C  1 YZ      0.00000     0.01106
             45  C  1 XXX     0.00000     0.04257
             46  C  1 YYY     0.00000     0.04257
             47  C  1 ZZZ     0.00729     0.10987
             48  C  1 XXY     0.00686     0.01985
             49  C  1 XXZ     0.00729     0.02273
             50  C  1 YYX     0.00000     0.01985
             51  C  1 YYZ     0.00000     0.02273
             52  C  1 ZZX     0.00000     0.05170
             53  C  1 ZZY     0.00000     0.05170
             54  C  1 XYZ     0.00000     0.00000
             55  C  1 XXX     0.00000     0.04298
             56  C  1 YYY     0.00000     0.04298
             57  C  1 ZZZ     0.00073     0.09337
             58  C  1 XXY     0.00117     0.02086
             59  C  1 XXZ     0.00073     0.03051
             60  C  1 YYX     0.00000     0.02086
             61  C  1 YYZ     0.00000     0.03051
             62  C  1 ZZX     0.00000     0.02678
             63  C  1 ZZY     0.00000     0.02678
             64  C  1 XYZ     0.00000     0.00000
             65  C  1 XXX     0.00000     0.03728
             66  C  1 YYY     0.00000     0.03728
             67  C  1 ZZZ    -0.00341     0.11709
             68  C  1 XXY    -0.00459     0.01731
             69  C  1 XXZ    -0.00341     0.02286
             70  C  1 YYX     0.00000     0.01731
             71  C  1 YYZ     0.00000     0.02286
             72  C  1 ZZX     0.00000     0.04486
             73  C  1 ZZY     0.00000     0.04486
             74  C  1 XYZ     0.00000     0.00000
             75  C  1XXXX     0.00000     0.02100
             76  C  1YYYY     0.00000     0.02100
             77  C  1ZZZZ     0.00000     0.08238
             78  C  1XXXY     0.00035     0.00000
             79  C  1XXXZ     0.00020     0.00137
             80  C  1YYYX     0.00035     0.00000
             81  C  1YYYZ     0.00000     0.00137
             82  C  1ZZZX     0.00000     0.00686
             83  C  1ZZZY     0.00000     0.00686
             84  C  1XXYY     0.00000     0.02291
             85  C  1XXZZ     0.00000     0.03339
             86  C  1YYZZ     0.00000     0.03339
             87  C  1XXYZ     0.00000     0.00063
             88  C  1YYXZ     0.00000     0.00063
             89  C  1ZZXY     0.00000     0.00000
             90  C  1XXXX     0.00000     0.00599
             91  C  1YYYY     0.00000     0.00599
             92  C  1ZZZZ     0.00000     0.06258
             93  C  1XXXY     0.00003     0.00000
             94  C  1XXXZ     0.00021     0.00451
             95  C  1YYYX     0.00003     0.00000
             96  C  1YYYZ     0.00000     0.00451
             97  C  1ZZZX     0.00000     0.02330
             98  C  1ZZZY     0.00000     0.02330
             99  C  1XXYY     0.00000     0.00661
            100  C  1XXZZ     0.00000     0.01639
            101  C  1YYZZ     0.00000     0.01639
            102  C  1XXYZ     0.00000     0.00206
            103  C  1YYXZ     0.00000     0.00206
            104  C  1ZZXY     0.00000     0.00000
            105  C  2  S      1.58858     0.10305
            106  C  2  X      1.02440     0.19032
            107  C  2  Y      1.02440     0.19032
            108  C  2  Z      1.37084     0.24617
            109  C  2  S     -0.02380     0.04289
            110  C  2  S     -0.19610     0.08217
            111  C  2  S     -0.04882     0.05657
            112  C  2  S      0.00707     0.02240
            113  C  2  X     -0.00701     0.11809
            114  C  2  Y     -0.00701     0.11809
            115  C  2  Z     -0.01621     0.19035
            116  C  2  X     -0.03430     0.09202
            117  C  2  Y     -0.03430     0.09202
            118  C  2  Z     -0.19285     0.14001
            119  C  2  X     -0.01774     0.07353
            120  C  2  Y     -0.01774     0.07353
            121  C  2  Z     -0.27564     0.06273
            122  C  2  X      0.00171     0.02333
            123  C  2  Y      0.00171     0.02333
            124  C  2  Z     -0.01096     0.01717
            125  C  2 XX      0.00145     0.03281
            126  C  2 YY      0.00000     0.03281
            127  C  2 ZZ      0.00000     0.04593
            128  C  2 XY      0.00069     0.00000
            129  C  2 XZ      0.00069     0.00050
            130  C  2 YZ      0.00000     0.00050
            131  C  2 XX      0.01310     0.04030
            132  C  2 YY      0.00000     0.04030
            133  C  2 ZZ      0.00000     0.09529
            134  C  2 XY      0.00921     0.00000
            135  C  2 XZ      0.00921     0.00476
            136  C  2 YZ      0.00000     0.00476
            137  C  2 XX      0.01722     0.01255
            138  C  2 YY      0.00000     0.01255
            139  C  2 ZZ      0.00000     0.06414
            140  C  2 XY      0.00982     0.00000
            141  C  2 XZ      0.00982     0.01539
            142  C  2 YZ      0.00000     0.01539
            143  C  2 XX      0.01291     0.00081
            144  C  2 YY      0.00000     0.00081
            145  C  2 ZZ      0.00000     0.03810
            146  C  2 XY     -0.00112     0.00000
            147  C  2 XZ     -0.00112     0.01106
            148  C  2 YZ      0.00000     0.01106
            149  C  2 XXX     0.00000     0.04257
            150  C  2 YYY     0.00000     0.04257
            151  C  2 ZZZ     0.00729     0.10987
            152  C  2 XXY     0.00686     0.01985
            153  C  2 XXZ     0.00729     0.02273
            154  C  2 YYX     0.00000     0.01985
            155  C  2 YYZ     0.00000     0.02273
            156  C  2 ZZX     0.00000     0.05170
            157  C  2 ZZY     0.00000     0.05170
            158  C  2 XYZ     0.00000     0.00000
            159  C  2 XXX     0.00000     0.04298
            160  C  2 YYY     0.00000     0.04298
            161  C  2 ZZZ     0.00073     0.09337
            162  C  2 XXY     0.00117     0.02086
            163  C  2 XXZ     0.00073     0.03051
            164  C  2 YYX     0.00000     0.02086
            165  C  2 YYZ     0.00000     0.03051
            166  C  2 ZZX     0.00000     0.02678
            167  C  2 ZZY     0.00000     0.02678
            168  C  2 XYZ     0.00000     0.00000
            169  C  2 XXX     0.00000     0.03728
            170  C  2 YYY     0.00000     0.03728
            171  C  2 ZZZ    -0.00341     0.11709
            172  C  2 XXY    -0.00459     0.01731
            173  C  2 XXZ    -0.00341     0.02286
            174  C  2 YYX     0.00000     0.01731
            175  C  2 YYZ     0.00000     0.02286
            176  C  2 ZZX     0.00000     0.04486
            177  C  2 ZZY     0.00000     0.04486
            178  C  2 XYZ     0.00000     0.00000
            179  C  2XXXX     0.00000     0.02100
            180  C  2YYYY     0.00000     0.02100
            181  C  2ZZZZ     0.00000     0.08238
            182  C  2XXXY     0.00035     0.00000
            183  C  2XXXZ     0.00020     0.00137
            184  C  2YYYX     0.00035     0.00000
            185  C  2YYYZ     0.00000     0.00137
            186  C  2ZZZX     0.00000     0.00686
            187  C  2ZZZY     0.00000     0.00686
            188  C  2XXYY     0.00000     0.02291
            189  C  2XXZZ     0.00000     0.03339
            190  C  2YYZZ     0.00000     0.03339
            191  C  2XXYZ     0.00000     0.00063
            192  C  2YYXZ     0.00000     0.00063
            193  C  2ZZXY     0.00000     0.00000
            194  C  2XXXX     0.00000     0.00599
            195  C  2YYYY     0.00000     0.00599
            196  C  2ZZZZ     0.00000     0.06258
            197  C  2XXXY     0.00003     0.00000
            198  C  2XXXZ     0.00021     0.00451
            199  C  2YYYX     0.00003     0.00000
            200  C  2YYYZ     0.00000     0.00451
            201  C  2ZZZX     0.00000     0.02330
            202  C  2ZZZY     0.00000     0.02330
            203  C  2XXYY     0.00000     0.00661
            204  C  2XXZZ     0.00000     0.01639
            205  C  2YYZZ     0.00000     0.01639
            206  C  2XXYZ     0.00000     0.00206
            207  C  2YYXZ     0.00000     0.00206
            208  C  2ZZXY     0.00000     0.00000
            209  H  3  S      1.43032     0.14204
            210  H  3  S     -0.00603     0.01003
            211  H  3  S     -0.17786     0.04016
            212  H  3  S     -0.41512     0.10368
            213  H  3  S     -0.06115     0.14197
            214  H  3  X     -0.00107     0.02667
            215  H  3  Y     -0.00107     0.02667
            216  H  3  Z     -0.02309     0.02084
            217  H  3  X      0.00634     0.01619
            218  H  3  Y      0.00634     0.01619
            219  H  3  Z     -0.00814     0.01692
            220  H  3  X      0.00263     0.00277
            221  H  3  Y      0.00263     0.00277
            222  H  3  Z      0.01023     0.01100
            223  H  3  X      0.00019     0.00030
            224  H  3  Y      0.00019     0.00030
            225  H  3  Z      0.00166     0.00141
            226  H  3 XX     -0.00197     0.00957
            227  H  3 YY      0.00000     0.00957
            228  H  3 ZZ      0.00000     0.03678
            229  H  3 XY     -0.00106     0.00000
            230  H  3 XZ     -0.00106     0.02902
            231  H  3 YZ      0.00000     0.02902
            232  H  3 XX      0.00018     0.02411
            233  H  3 YY      0.00000     0.02411
            234  H  3 ZZ      0.00000     0.06836
            235  H  3 XY      0.00156     0.00000
            236  H  3 XZ      0.00156     0.00720
            237  H  3 YZ      0.00000     0.00720
            238  H  3 XX      0.00029     0.03170
            239  H  3 YY      0.00000     0.03170
            240  H  3 ZZ      0.00000     0.04871
            241  H  3 XY      0.00012     0.00000
            242  H  3 XZ      0.00012     0.00016
            243  H  3 YZ      0.00000     0.00016
            244  H  3 XXX     0.00000     0.00834
            245  H  3 YYY     0.00000     0.00834
            246  H  3 ZZZ     0.00050     0.01938
            247  H  3 XXY     0.00002     0.00375
            248  H  3 XXZ     0.00050     0.00404
            249  H  3 YYX     0.00000     0.00375
            250  H  3 YYZ     0.00000     0.00404
            251  H  3 ZZX     0.00000     0.02884
            252  H  3 ZZY     0.00000     0.02884
            253  H  3 XYZ     0.00000     0.00000
            254  H  3 XXX     0.00000     0.00135
            255  H  3 YYY     0.00000     0.00135
            256  H  3 ZZZ     0.00012     0.01580
            257  H  3 XXY     0.00004     0.00060
            258  H  3 XXZ     0.00012     0.00181
            259  H  3 YYX     0.00000     0.00060
            260  H  3 YYZ     0.00000     0.00181
            261  H  3 ZZX     0.00000     0.00288
            262  H  3 ZZY     0.00000     0.00288
            263  H  3 XYZ     0.00000     0.00000
            264  H  4  S      1.43032     0.14204
            265  H  4  S     -0.00603     0.01003
            266  H  4  S     -0.17786     0.04016
            267  H  4  S     -0.41512     0.10368
            268  H  4  S     -0.06115     0.14197
            269  H  4  X     -0.00107     0.02667
            270  H  4  Y     -0.00107     0.02667
            271  H  4  Z     -0.02309     0.02084
            272  H  4  X      0.00634     0.01619
            273  H  4  Y      0.00634     0.01619
            274  H  4  Z     -0.00814     0.01692
            275  H  4  X      0.00263     0.00277
            276  H  4  Y      0.00263     0.00277
            277  H  4  Z      0.01023     0.01100
            278  H  4  X      0.00019     0.00030
            279  H  4  Y      0.00019     0.00030
            280  H  4  Z      0.00166     0.00141
            281  H  4 XX     -0.00197     0.00957
            282  H  4 YY      0.00000     0.00957
            283  H  4 ZZ      0.00000     0.03678
            284  H  4 XY     -0.00106     0.00000
            285  H  4 XZ     -0.00106     0.02902
            286  H  4 YZ      0.00000     0.02902
            287  H  4 XX      0.00018     0.02411
            288  H  4 YY      0.00000     0.02411
            289  H  4 ZZ      0.00000     0.06836
            290  H  4 XY      0.00156     0.00000
            291  H  4 XZ      0.00156     0.00720
            292  H  4 YZ      0.00000     0.00720
            293  H  4 XX      0.00029     0.03170
            294  H  4 YY      0.00000     0.03170
            295  H  4 ZZ      0.00000     0.04871
            296  H  4 XY      0.00012     0.00000
            297  H  4 XZ      0.00012     0.00016
            298  H  4 YZ      0.00000     0.00016
            299  H  4 XXX     0.00000     0.00834
            300  H  4 YYY     0.00000     0.00834
            301  H  4 ZZZ     0.00050     0.01938
            302  H  4 XXY     0.00002     0.00375
            303  H  4 XXZ     0.00050     0.00404
            304  H  4 YYX     0.00000     0.00375
            305  H  4 YYZ     0.00000     0.00404
            306  H  4 ZZX     0.00000     0.02884
            307  H  4 ZZY     0.00000     0.02884
            308  H  4 XYZ     0.00000     0.00000
            309  H  4 XXX     0.00000     0.00135
            310  H  4 YYY     0.00000     0.00135
            311  H  4 ZZZ     0.00012     0.01580
            312  H  4 XXY     0.00004     0.00060
            313  H  4 XXZ     0.00012     0.00181
            314  H  4 YYX     0.00000     0.00060
            315  H  4 YYZ     0.00000     0.00181
            316  H  4 ZZX     0.00000     0.00288
            317  H  4 ZZY     0.00000     0.00288
            318  H  4 XYZ     0.00000     0.00000

          ----- MULLIKEN ATOMIC OVERLAP POPULATIONS -----
          (OFF-DIAGONAL ELEMENTS NEED TO BE MULTIPLIED BY 2)

             1           2           3           4

    1    2.9464347
    2    1.1555549   2.9464347
    3    0.2520943  -0.1221372   0.6007138
    4   -0.1221372   0.2520943   0.0373824   0.6007138

          TOTAL MULLIKEN AND LOWDIN ATOMIC POPULATIONS
       ATOM         MULL.POP.    CHARGE          LOW.POP.     CHARGE
    1 C             4.231947   -0.231947         3.924328    0.075672
    2 C             4.231947   -0.231947         3.924328    0.075672
    3 H             0.768053    0.231947         1.075672   -0.075672
    4 H             0.768053    0.231947         1.075672   -0.075672

          MULLIKEN SPHERICAL HARMONIC POPULATIONS
       ATOM           S       P       D      F      G      H      I    TOTAL
    1 C             1.33    2.81    0.08   0.01   0.00   0.00   0.00    4.23
    2 C             1.33    2.81    0.08   0.01   0.00   0.00   0.00    4.23
    3 H             0.77   -0.00   -0.00   0.00   0.00   0.00   0.00    0.77
    4 H             0.77   -0.00   -0.00   0.00   0.00   0.00   0.00    0.77

          -------------------------------
          BOND ORDER AND VALENCE ANALYSIS     BOND ORDER THRESHOLD=0.050
          -------------------------------

                   BOND                       BOND                       BOND
  ATOM PAIR DIST  ORDER      ATOM PAIR DIST  ORDER      ATOM PAIR DIST  ORDER
    1   2  1.203  3.039        1   3  1.063  0.835        2   4  1.063  0.835

                       TOTAL       BONDED        FREE
      ATOM            VALENCE     VALENCE     VALENCE
    1 C                 3.857       3.857      -0.000
    2 C                 3.857       3.857      -0.000
    3 H                 0.824       0.824       0.000
    4 H                 0.824       0.824      -0.000

          -----------------------------------------
          ATOMIC SPIN DENSITY AT THE NUCLEUS (A.U.)
          -----------------------------------------
                            SPIN DENS    ALPHA DENS     BETA DENS
    1  C            4.0     0.0000000       0.00226       0.00226
    2  C            4.0     0.0000000       0.00226       0.00226
    3  H            1.0     0.0000000       0.19174       0.19174
    4  H            1.0     0.0000000       0.19174       0.19174

          ---------------------
          ELECTROSTATIC MOMENTS
          ---------------------

 POINT   1           X           Y           Z (BOHR)    CHARGE
                 0.000000    0.000000   -0.000000       -0.00 (A.U.)
         DX          DY          DZ         /D/  (DEBYE)
     0.000000   -0.000000    0.000000    0.000000
 ...... END OF PROPERTY EVALUATION ......
 CPU     0: STEP CPU TIME=     0.31 TOTAL CPU TIME=         40.8 (      0.7 MIN)
 TOTAL WALL CLOCK TIME=         44.3 SECONDS, CPU UTILIZATION IS    91.97%
               1117717  WORDS OF DYNAMIC MEMORY USED
 EXECUTION OF GAMESS TERMINATED NORMALLY Wed Feb  3 18:57:16 2021
 DDI: 263640 bytes (0.3 MB / 0 MWords) used by master data server.

 ----------------------------------------
 CPU timing information for all processes
 ========================================
 0: 34.709 + 6.182 = 40.891
 1: 38.615 + 5.431 = 44.47
 2: 45.126 + 1.300 = 46.426
 3: 45.295 + 1.96 = 46.391
 ----------------------------------------
unset echo
----- accounting info -----
Files used on the master node nid00018 were:
-rw-r----- 1 haihan haihan       4900 Feb  3 18:56 /global/cscratch1/sd/haihan/gamess_38675160/hf.F05
-rw-rw---- 1 haihan haihan 2486085728 Feb  3 18:56 /global/cscratch1/sd/haihan/gamess_38675160/hf.F08
-rw-rw---- 1 haihan haihan  301465600 Feb  3 18:57 /global/cscratch1/sd/haihan/gamess_38675160/hf.F10
-rw-rw---- 1 haihan haihan    1295386 Feb  3 18:57 /global/cscratch1/sd/haihan/gamess_38675160/hf.dat
ls: No match.
ls: No match.
ls: No match.
Wed Feb  3 18:57:19 PST 2021
0.637u 0.730s 0:52.42 2.5%	0+0k 1468+9848io 5pf+0w
