mkdir: cannot create directory ‘/global/cscratch1/sd/haihan/gamess_38711439’: File exists
----- GAMESS execution script 'rungms' -----
This job is running on host nid00010
under operating system Linux at Thu Feb 4 17:59:35 PST 2021
Slurm has assigned the following compute nodes to this run:
nid00010
Available scratch disk space (Kbyte units) at beginning of the job is
Filesystem                                                 1K-blocks           Used      Available Use% Mounted on
10.100.104.4@o2ib4000:10.101.104.5@o2ib4001:/snx11168 29531080226208 18850366593712 10381343219148  65% /global/cscratch1
GAMESS temporary binary files will be written to /global/cscratch1/sd/haihan/gamess_38711439
GAMESS supplementary output files will be written to /global/cscratch1/sd/haihan/gamess_38711439
Copying input file scf.inp to your run's scratch directory...
cp scf.inp /global/cscratch1/sd/haihan/gamess_38711439/scf.F05
unset echo
setenv DDI_DS_PER_NODE 1
setenv OMP_NUM_THREADS 1
setenv OMP_PROC_BIND spread
setenv OMP_PLACES cores
chdir /global/cscratch1/sd/haihan/gamess_38711439/scf
sbcast --compress=lz4 /usr/common/software/gamess/30SEP2019R2/intel/19.0.3.199/hsw/bin/gamess.00.x /tmp/gamess
srun -n 4 -c 2 --cpu_bind=cores /tmp/gamess scf
          ******************************************************
          *         GAMESS VERSION = 30 SEP 2019 (R2)          *
          *             FROM IOWA STATE UNIVERSITY             *
          * M.W.SCHMIDT, K.K.BALDRIDGE, J.A.BOATZ, S.T.ELBERT, *
          *   M.S.GORDON, J.H.JENSEN, S.KOSEKI, N.MATSUNAGA,   *
          *          K.A.NGUYEN, S.J.SU, T.L.WINDUS,           *
          *       TOGETHER WITH M.DUPUIS, J.A.MONTGOMERY       *
          *         J.COMPUT.CHEM.  14, 1347-1363(1993)        *
          **************** 64 BIT LINUX VERSION ****************

  SINCE 1993, STUDENTS AND POSTDOCS WORKING AT IOWA STATE UNIVERSITY
  AND ALSO IN THEIR VARIOUS JOBS AFTER LEAVING ISU HAVE MADE IMPORTANT
  CONTRIBUTIONS TO THE CODE:
     IVANA ADAMOVIC, CHRISTINE AIKENS, YURI ALEXEEV, POOJA ARORA,
     ANDREY ASADCHEV, ROB BELL, PRADIPTA BANDYOPADHYAY, JONATHAN BENTZ,
     COLLEEN BERTONI, BRETT BODE, KURT BRORSEN, CALEB CARLIN, GALINA CHABAN,
     WEI CHEN, CHEOL HO CHOI, PAUL DAY, ALBERT DEFUSCO, NUWAN DESILVA,
     TIM DUDLEY, DMITRI FEDOROV, ALEX FINDLATER, GRAHAM FLETCHER, 
     MARK FREITAG, KURT GLAESEMANN, EMILIE B GUIDEZ, ANASTASIA GUNINA, 
     DAN KEMP, SAROM SOK LEANG, GRANT MERRILL,
     NORIYUKI MINEZAWA, JONATHAN MULLIN,
     TAKESHI NAGATA, SEAN NEDD, HEATHER NETZLOFF, BOSILJKA NJEGIC, RYAN OLSON,
     MIKE PAK, BUU PHAM, DAVID POOLE,
     SPENCER PRUITT, LUKE ROSKOP, TOSAPORN SATTASATHUCHANA,
     JIM SHOEMAKER, LYUDMILA SLIPCHENKO,
     TONY SMITH, JIE SONG, TETSUYA TAKETSUGU, SIMON WEBB,
     JORGE LUIS GALVEZ VALLEJO, PENG XU, SOOHAENG YOO,
     FEDERICO ZAHARIEV

  ADDITIONAL CODE HAS BEEN PROVIDED BY COLLABORATORS IN OTHER GROUPS:
     IOWA STATE UNIVERSITY:
          JOE IVANIC, AARON WEST, LAIMUTIS BYTAUTAS, KLAUS RUEDENBERG
     UNIVERSITY OF TOKYO: KIMIHIKO HIRAO, TAKAHITO NAKAJIMA,
          TAKAO TSUNEDA, MUNEAKI KAMIYA, SUSUMU YANAGISAWA,
          KIYOSHI YAGI, MAHITO CHIBA, SEIKEN TOKURA, NAOAKI KAWAKAMI
     UNIVERSITY OF AARHUS: FRANK JENSEN
     UNIVERSITY OF IOWA: VISVALDAS KAIRYS, HUI LI
     NATIONAL INST. OF STANDARDS AND TECHNOLOGY: WALT STEVENS, DAVID GARMER
     UNIVERSITY OF PISA: BENEDETTA MENNUCCI, JACOPO TOMASI
     UNIVERSITY OF MEMPHIS: HENRY KURTZ, PRAKASHAN KORAMBATH
     UNIVERSITY OF ALBERTA: TOBY ZENG, MARIUSZ KLOBUKOWSKI
     UNIVERSITY OF NEW ENGLAND: MARK SPACKMAN
     MIE UNIVERSITY: HIROAKI UMEDA
     NAT. INST. OF ADVANCED INDUSTRIAL SCIENCE AND TECHNOLOGY: KAZUO KITAURA
     MICHIGAN STATE UNIVERSITY:
          KAROL KOWALSKI, MARTA WLOCH, JEFFREY GOUR, JESSE LUTZ,
          WEI LI, JUN SHEN, J. EMILIANO DEUSTUA, PIOTR PIECUCH
     UNIVERSITY OF MINNESOTA:
          ANDREW SAND, PRACHI SHARMA, YINAN SHU
     UNIVERSITY OF SILESIA: MONIKA MUSIAL, STANISLAW KUCHARSKI
     FACULTES UNIVERSITAIRES NOTRE-DAME DE LA PAIX:
          OLIVIER QUINET, BENOIT CHAMPAGNE
     UNIVERSITY OF CALIFORNIA - SANTA BARBARA: BERNARD KIRTMAN
     INSTITUTE FOR MOLECULAR SCIENCE:
          KAZUYA ISHIMURA, MICHIO KATOUDA, AND SHIGERU NAGASE
     UNIVERSITY OF NOTRE DAME: ANNA POMOGAEVA, DAN CHIPMAN
     KYUSHU UNIVERSITY:
          HARUYUKI NAKANO,
          FENG LONG GU, JACEK KORCHOWIEC, MARCIN MAKOWSKI, AND YURIKO AOKI,
          HIROTOSHI MORI AND EISAKU MIYOSHI
     PENNSYLVANIA STATE UNIVERSITY:
          TZVETELIN IORDANOV, CHET SWALINA, JONATHAN SKONE,
          SHARON HAMMES-SCHIFFER
     WASEDA UNIVERSITY:
          MASATO KOBAYASHI, TOMOKO AKAMA, TSUGUKI TOUMA,
          TAKESHI YOSHIKAWA, YASUHIRO IKABATA, JUNJI SEINO,
          YUYA NAKAJIMA, HIROMI NAKAI
     NANJING UNIVERSITY: SHUHUA LI
     UNIVERSITY OF NEBRASKA:
          PEIFENG SU, DEJUN SI, NANDUN THELLAMUREGE, YALI WANG, HUI LI
     UNIVERSITY OF ZURICH: ROBERTO PEVERATI, KIM BALDRIDGE
     N. COPERNICUS UNIVERSITY AND JACKSON STATE UNIVERSITY:
          MARIA BARYSZ
     UNIVERSITY OF COPENHAGEN: Jimmy Kromann, CASPER STEINMANN
     TOKYO INSTITUTE OF TECHNOLOGY: HIROYA NAKATA
     NAGOYA UNIVERSITY: YOSHIO NISHIMOTO, STEPHAN IRLE
     MOSCOW STATE UNIVERSITY: VLADIMIR MIRONOV
     A.N.NESMEYANOV INSTITUTE OF ORGANOELEMENT COMPOUNDS OF RUSSIAN ACADEMY OF SCIENCES:
          IGOR S. GERASIMOV
     JOHANNES KEPLER UNIVERSITY LINZ:
          CHRISTIAN FRIEDL


 PARALLEL VERSION RUNNING ON        2 PROCESSORS IN        1 NODES.

 EXECUTION OF GAMESS BEGUN Thu Feb  4 17:59:38 2021

            ECHO OF THE FIRST FEW INPUT CARDS -
 INPUT CARD> $CONTRL                                                                        
 INPUT CARD>     SCFTYP=ROHF                                                                
 INPUT CARD>     MULT=1                                                                     
 INPUT CARD>     ICHARG=0                                                                   
 INPUT CARD>     RUNTYP=energy                                                              
 INPUT CARD>     MAXIT=200                                                                  
 INPUT CARD>     PP=READ                                                                    
 INPUT CARD>     ISPHER=1                                                                   
 INPUT CARD>     UNITS=ANGS                                                                 
 INPUT CARD> $END                                                                           
 INPUT CARD>                                                                                
 INPUT CARD> $SYSTEM                                                                        
 INPUT CARD>    MWORDS=1000                                                                 
 INPUT CARD>    MEMDDI=1000                                                                 
 INPUT CARD> $END                                                                           
 INPUT CARD>                                                                                
 INPUT CARD> $GUESS                                                                         
 INPUT CARD>     GUESS=MOREAD                                                               
 INPUT CARD>     NORB=250                                                                   
 INPUT CARD>     NORDER=1                                                                   
 INPUT CARD>     IORDER(6)=159                                                              
 INPUT CARD>     IORDER(7)=160                                                              
 INPUT CARD>     IORDER(8)=208                                                              
 INPUT CARD>     IORDER(9)=6                                                                
 INPUT CARD>     IORDER(10)=7                                                               
 INPUT CARD>     IORDER(11)=8                                                               
 INPUT CARD>     IORDER(12)=68                                                              
 INPUT CARD>     IORDER(13)=53                                                              
 INPUT CARD>     IORDER(14)=54                                                              
 INPUT CARD>     IORDER(15)=17                                                              
 INPUT CARD>     IORDER(16)=78                                                              
 INPUT CARD>     IORDER(17)=79                                                              
 INPUT CARD>     IORDER(18)=13                                                              
 INPUT CARD>     IORDER(19)=9                                                               
 INPUT CARD>     IORDER(20)=77                                                              
 INPUT CARD>     IORDER(21)=18                                                              
 INPUT CARD>     IORDER(22)=19                                                              
 INPUT CARD>     IORDER(23)=92                                                              
 INPUT CARD>     IORDER(24)=74                                                              
 INPUT CARD>     IORDER(25)=10                                                              
 INPUT CARD>     IORDER(26)=245                                                             
 INPUT CARD>     IORDER(27)=246                                                             
 INPUT CARD>     IORDER(28)=145                                                             
 INPUT CARD>     IORDER(29)=236                                                             
 INPUT CARD>     IORDER(30)=237                                                             
 INPUT CARD>     IORDER(31)=39                                                              
 INPUT CARD>     IORDER(208)=11                                                             
 INPUT CARD>     IORDER(68)=12                                                              
 INPUT CARD>     IORDER(53)=13                                                              
 INPUT CARD>     IORDER(54)=14                                                              
 1000000000 WORDS OF MEMORY AVAILABLE


     RUN TITLE
     ---------
  C2H2 calculation                                                               

 THE POINT GROUP OF THE MOLECULE IS C1      
 THE ORDER OF THE PRINCIPAL AXIS IS     0

 ATOM      ATOMIC                      COORDINATES (BOHR)
           CHARGE         X                   Y                   Z
 C           6.0     0.0000000000        0.0000000000        1.1362922364
 C           6.0     0.0000000000        0.0000000000       -1.1362922364
 H           1.0     0.0000000000        0.0000000000        3.1452599340
 H           1.0     0.0000000000        0.0000000000       -3.1452599340

          INTERNUCLEAR DISTANCES (ANGS.)
          ------------------------------

                1 C          2 C          3 H          4 H     

   1 C       0.0000000    1.2026000 *  1.0631000 *  2.2657000 *
   2 C       1.2026000 *  0.0000000    2.2657000 *  1.0631000 *
   3 H       1.0631000 *  2.2657000 *  0.0000000    3.3288000  
   4 H       2.2657000 *  1.0631000 *  3.3288000    0.0000000  

  * ... LESS THAN  3.000


     ATOMIC BASIS SET
     ----------------
 THE CONTRACTED PRIMITIVE FUNCTIONS HAVE BEEN UNNORMALIZED
 THE CONTRACTED BASIS FUNCTIONS ARE NOW NORMALIZED TO UNITY

  SHELL TYPE  PRIMITIVE        EXPONENT          CONTRACTION COEFFICIENT(S)

 C         

      1   S       1            13.0735940    0.005158299799
      1   S       2             6.5411870    0.060342397643
      1   S       3             4.5734110   -0.197847092272
      1   S       4             1.6374940   -0.081033996835
      1   S       5             0.8192970    0.232172590931
      1   S       6             0.4099240    0.291464288615
      1   S       7             0.2313000    0.433640483061
      1   S       8             0.1026190    0.213193991672
      1   S       9             0.0513440    0.004984799805

      2   P      10             9.9341690    0.020907599209
      2   P      11             3.8869550    0.057269797835
      2   P      12             1.8710160    0.112268195755
      2   P      13             0.9357570    0.213008191946
      2   P      14             0.4680030    0.283581489278
      2   P      15             0.2394730    0.301120688615
      2   P      16             0.1170630    0.201693392374
      2   P      17             0.0585470    0.045357498285
      2   P      18             0.0292810    0.002977499887

      3   S      19             0.8468790    1.000000000000

      4   S      20             0.2696590    1.000000000000

      5   S      21             0.1095760    1.000000000000

      6   S      22             0.0438300    1.000000000000

      7   P      23             0.8046810    1.000000000000

      8   P      24             0.3132540    1.000000000000

      9   P      25             0.1053890    1.000000000000

     10   P      26             0.0421560    1.000000000000

     11   D      27             2.0137600    1.000000000000

     12   D      28             0.6848840    1.000000000000

     13   D      29             0.2401710    1.000000000000

     14   D      30             0.0960690    1.000000000000

     15   F      31             0.4573020    1.000000000000

     16   F      32             1.3249300    1.000000000000

     17   F      33             0.5299720    1.000000000000

     18   G      34             1.0341800    1.000000000000

     19   G      35             0.4136720    1.000000000000

 C         

     20   S      36            13.0735940    0.005158299799
     20   S      37             6.5411870    0.060342397643
     20   S      38             4.5734110   -0.197847092272
     20   S      39             1.6374940   -0.081033996835
     20   S      40             0.8192970    0.232172590931
     20   S      41             0.4099240    0.291464288615
     20   S      42             0.2313000    0.433640483061
     20   S      43             0.1026190    0.213193991672
     20   S      44             0.0513440    0.004984799805

     21   P      45             9.9341690    0.020907599209
     21   P      46             3.8869550    0.057269797835
     21   P      47             1.8710160    0.112268195755
     21   P      48             0.9357570    0.213008191946
     21   P      49             0.4680030    0.283581489278
     21   P      50             0.2394730    0.301120688615
     21   P      51             0.1170630    0.201693392374
     21   P      52             0.0585470    0.045357498285
     21   P      53             0.0292810    0.002977499887

     22   S      54             0.8468790    1.000000000000

     23   S      55             0.2696590    1.000000000000

     24   S      56             0.1095760    1.000000000000

     25   S      57             0.0438300    1.000000000000

     26   P      58             0.8046810    1.000000000000

     27   P      59             0.3132540    1.000000000000

     28   P      60             0.1053890    1.000000000000

     29   P      61             0.0421560    1.000000000000

     30   D      62             2.0137600    1.000000000000

     31   D      63             0.6848840    1.000000000000

     32   D      64             0.2401710    1.000000000000

     33   D      65             0.0960690    1.000000000000

     34   F      66             0.4573020    1.000000000000

     35   F      67             1.3249300    1.000000000000

     36   F      68             0.5299720    1.000000000000

     37   G      69             1.0341800    1.000000000000

     38   G      70             0.4136720    1.000000000000

 H         

     39   S      71            23.8431850    0.004114899701
     39   S      72            10.2124430    0.010464399240
     39   S      73             4.3741640    0.028011097966
     39   S      74             1.8735290    0.075886194491
     39   S      75             0.8024650    0.182106186780
     39   S      76             0.3437090    0.348521374698
     39   S      77             0.1472170    0.378231272542
     39   S      78             0.0630550    0.116424091548

     40   S      79             0.0287260    1.000000000000

     41   S      80             0.0818560    1.000000000000

     42   S      81             0.2332540    1.000000000000

     43   S      82             0.6646730    1.000000000000

     44   P      83             0.0955220    1.000000000000

     45   P      84             0.2844690    1.000000000000

     46   P      85             0.8471590    1.000000000000

     47   P      86             2.5228680    1.000000000000

     48   D      87             0.2160330    1.000000000000

     49   D      88             0.6652790    1.000000000000

     50   D      89             2.0487390    1.000000000000

     51   F      90             0.4446470    1.000000000000

     52   F      91             1.4214600    1.000000000000

 H         

     53   S      92            23.8431850    0.004114899701
     53   S      93            10.2124430    0.010464399240
     53   S      94             4.3741640    0.028011097966
     53   S      95             1.8735290    0.075886194491
     53   S      96             0.8024650    0.182106186780
     53   S      97             0.3437090    0.348521374698
     53   S      98             0.1472170    0.378231272542
     53   S      99             0.0630550    0.116424091548

     54   S     100             0.0287260    1.000000000000

     55   S     101             0.0818560    1.000000000000

     56   S     102             0.2332540    1.000000000000

     57   S     103             0.6646730    1.000000000000

     58   P     104             0.0955220    1.000000000000

     59   P     105             0.2844690    1.000000000000

     60   P     106             0.8471590    1.000000000000

     61   P     107             2.5228680    1.000000000000

     62   D     108             0.2160330    1.000000000000

     63   D     109             0.6652790    1.000000000000

     64   D     110             2.0487390    1.000000000000

     65   F     111             0.4446470    1.000000000000

     66   F     112             1.4214600    1.000000000000

 TOTAL NUMBER OF BASIS SET SHELLS             =   66
 NUMBER OF CARTESIAN GAUSSIAN BASIS FUNCTIONS =  318
 NOTE: THIS RUN WILL RESTRICT THE MO VARIATION SPACE TO SPHERICAL HARMONICS.
 THE NUMBER OF ORBITALS KEPT IN THE VARIATIONAL SPACE WILL BE PRINTED LATER.
 NUMBER OF ELECTRONS                          =   14
 CHARGE OF MOLECULE                           =    0
 SPIN MULTIPLICITY                            =    1
 NUMBER OF OCCUPIED ORBITALS (ALPHA)          =    7
 NUMBER OF OCCUPIED ORBITALS (BETA )          =    7
 TOTAL NUMBER OF ATOMS                        =    4
 THE NUCLEAR REPULSION ENERGY IS       24.7759035842
 NOTE THIS RUN IS USING CORE POTENTIALS, AND THE NUMBER OF ELECTRONS,
 OCCUPIED ORBITALS, AND NUCLEAR REPULSION ENERGY WILL BE ADJUSTED BELOW
 AFTER REMOVAL OF THE CORE CHARGES.

 THIS MOLECULE IS RECOGNIZED AS BEING LINEAR,
 ORBITAL LZ DEGENERACY TOLERANCE ETOLLZ= 1.00E-06

     $CONTRL OPTIONS
     ---------------
 SCFTYP=ROHF         RUNTYP=ENERGY       EXETYP=RUN     
 MPLEVL=       0     CITYP =NONE         CCTYP =NONE         VBTYP =NONE    
 DFTTYP=NONE         TDDFT =NONE    
 MULT  =       1     ICHARG=       0     NZVAR =       0     COORD =UNIQUE  
 PP    =READ         RELWFN=NONE         LOCAL =NONE         NUMGRD=       F
 ISPHER=       1     NOSYM =       0     MAXIT =     200     UNITS =ANGS    
 PLTORB=       F     MOLPLT=       F     AIMPAC=       F     FRIEND=        
 NPRINT=       7     IREST =       0     GEOM  =INPUT   
 NORMF =       0     NORMP =       0     ITOL  =      20     ICUT  =       9
 INTTYP=BEST         GRDTYP=BEST         QMTTOL= 1.0E-06

     $SYSTEM OPTIONS
     ---------------
  REPLICATED MEMORY=  1000000000 WORDS (ON EVERY NODE).
 DISTRIBUTED MEMDDI=        1000 MILLION WORDS IN AGGREGATE,
 MEMDDI DISTRIBUTED OVER   2 PROCESSORS IS   500000000 WORDS/PROCESSOR.
 TOTAL MEMORY REQUESTED ON EACH PROCESSOR=  1500000000 WORDS.
 TIMLIM=      525600.00 MINUTES, OR     365.0 DAYS.
 PARALL= T  BALTYP=  DLB     KDIAG=    0  COREFL= F
 MXSEQ2=     300 MXSEQ3=     150  mem10=         0

          --------------
          ECP POTENTIALS
          --------------

 PARAMETERS FOR "C-CCECP " ON ATOM    1 WITH ZCORE   2 AND LMAX  1 ARE
 FOR L= 1      COEFF    N           ZETA
    1        4.00000    1       14.43502
    2       57.74008    3        8.39889
    3      -25.81955    2        7.38188
 FOR L= 0      COEFF    N           ZETA
    1       52.13345    2        7.76079

 PARAMETERS FOR "C-CCECP " ON ATOM    2 ARE THE SAME AS ATOM   1

 PARAMETERS FOR "H-CCECP " ON ATOM    3 WITH ZCORE   0 AND LMAX  1 ARE
 FOR L= 1      COEFF    N           ZETA
    1        1.00000    1       21.24360
    2       21.24360    3       21.24360
    3      -10.85192    2       21.77697
 FOR L= 0      COEFF    N           ZETA
    1        0.00000    2        1.00000

 PARAMETERS FOR "H-CCECP " ON ATOM    4 ARE THE SAME AS ATOM   3

 THE ECP RUN REMOVES    4 CORE ELECTRONS, AND THE SAME NUMBER OF PROTONS.
 NUMBER OF ELECTRONS KEPT IN THE CALCULATION IS =   10
 NUMBER OF OCCUPIED ORBITALS (ALPHA) KEPT IS    =    5
 NUMBER OF OCCUPIED ORBITALS (BETA ) KEPT IS    =    5
 THE ADJUSTED NUCLEAR REPULSION ENERGY=       13.0500376648
          ECP ANGULAR INTS.........     0.01 SECONDS

          ----------------
          PROPERTIES INPUT
          ----------------

     MOMENTS            FIELD           POTENTIAL          DENSITY
 IEMOM =       1   IEFLD =       0   IEPOT =       0   IEDEN =       0
 WHERE =COMASS     WHERE =NUCLEI     WHERE =NUCLEI     WHERE =NUCLEI  
 OUTPUT=BOTH       OUTPUT=BOTH       OUTPUT=BOTH       OUTPUT=BOTH    
 IEMINT=       0   IEFINT=       0                     IEDINT=       0
                                                       MORB  =       0
          EXTRAPOLATION IN EFFECT
          DAMPING IN EFFECT
          LEVEL SHIFTING IN EFFECT
          RESTRICTION OF ORBITAL MIXING IN EFFECT
          DIIS IN EFFECT
 ORBITAL PRINTING OPTION: NPREO=     1   318     2     1

     -------------------------------
     INTEGRAL TRANSFORMATION OPTIONS
     -------------------------------
     NWORD  =            0
     CUTOFF = 1.0E-09     MPTRAN =       0
     DIRTRF =       F     AOINTS =DUP     

          ----------------------
          INTEGRAL INPUT OPTIONS
          ----------------------
 NOPK  =       1 NORDER=       0 SCHWRZ=       F

     ------------------------------------------
     THE POINT GROUP IS C1 , NAXIS= 0, ORDER= 1
     ------------------------------------------

 -- VARIATIONAL SPACE WILL BE RESTRICTED TO PURE SPHERICAL HARMONICS ONLY --
 AFTER EXCLUDING CONTAMINANT COMBINATIONS FROM THE CARTESIAN GAUSSIAN BASIS
 SET, THE NUMBER OF SPHERICAL HARMONICS KEPT IN THE VARIATION SPACE IS  250

     DIMENSIONS OF THE SYMMETRY SUBSPACES ARE
 A   =  250

 ..... DONE SETTING UP THE RUN .....
 CPU     0: STEP CPU TIME=     0.48 TOTAL CPU TIME=          0.5 (      0.0 MIN)
 TOTAL WALL CLOCK TIME=          5.8 SECONDS, CPU UTILIZATION IS     8.29%

          ********************
          1 ELECTRON INTEGRALS
          ********************
 TIME TO DO ORDINARY INTEGRALS=      0.04
 TIME TO DO      ECP INTEGRALS=      0.13
 ...... END OF ONE-ELECTRON INTEGRALS ......
 CPU     0: STEP CPU TIME=     0.17 TOTAL CPU TIME=          0.7 (      0.0 MIN)
 TOTAL WALL CLOCK TIME=          7.9 SECONDS, CPU UTILIZATION IS     8.26%

          -------------
          GUESS OPTIONS
          -------------
          GUESS =MOREAD            NORB  =     250          NORDER=       1
          MIX   =       F          PRTMO =       F          PUNMO =       F
          TOLZ  = 1.0E-08          TOLE  = 1.0E-05
          SYMDEN=       F          PURIFY=       F

 INITIAL GUESS ORBITALS GENERATED BY MOREAD   ROUTINE.

 STATISTICS FOR GENERATION OF SYMMETRY ORBITAL -Q- MATRIX
 NUMBER OF CARTESIAN ATOMIC ORBITALS=        318
 NUMBER OF SPHERICAL CONTAMINANTS DROPPED=    68
 NUMBER OF LINEARLY DEPENDENT MOS DROPPED=     0
 TOTAL NUMBER OF MOS IN VARIATION SPACE=     250

                    * * * * * WARNING * * * * *
 POSSIBLE LINEAR DEPENDENCE PROBLEMS DETECTED, INPUT QMTTOL= 1.0E-06,
 WITH     2 OVERLAP EIGENVALUES LYING BETWEEN 1.0E-05 AND QMTTOL.
 IF YOU EXPERIENCE SCF CONVERGENCE DIFFICULTIES WITH THE DENSITY ALMOST BUT
 NOT QUITE CONVERGED, YOU MAY NEED TO LOOSEN -QMTTOL- BY A FACTOR 5 TO 10.

 SYMMETRIES FOR INITIAL GUESS ORBITALS FOLLOW.  ALPHA SET(S).
     5 ORBITALS ARE OCCUPIED (    0 CORE ORBITALS).
     1=A        2=A        3=A        4=A        5=A        6=A        7=A   
     8=A        9=A       10=A       11=A       12=A       13=A       14=A   
    15=A   

 SYMMETRIES FOR INITIAL GUESS ORBITALS FOLLOW.   BETA SET(S).
     5 ORBITALS ARE OCCUPIED (    0 CORE ORBITALS).
     1=A        2=A        3=A        4=A        5=A        6=A        7=A   
     8=A        9=A       10=A       11=A       12=A       13=A       14=A   
    15=A   
 ...... END OF INITIAL ORBITAL SELECTION ......
 CPU     0: STEP CPU TIME=     0.22 TOTAL CPU TIME=          0.9 (      0.0 MIN)
 TOTAL WALL CLOCK TIME=         11.4 SECONDS, CPU UTILIZATION IS     7.64%

                    ----------------------
                    AO INTEGRAL TECHNOLOGY
                    ----------------------
     S,P,L SHELL ROTATED AXIS INTEGRALS, REPROGRAMMED BY
        KAZUYA ISHIMURA (IMS) AND JOSE SIERRA (SYNSTAR).
     S,P,D,L SHELL ROTATED AXIS INTEGRALS PROGRAMMED BY
        KAZUYA ISHIMURA (INSTITUTE FOR MOLECULAR SCIENCE).
     S,P,D,F,G SHELL TO TOTAL QUARTET ANGULAR MOMENTUM SUM 5,
        ERIC PROGRAM BY GRAHAM FLETCHER (ELORET AND NASA ADVANCED
        SUPERCOMPUTING DIVISION, AMES RESEARCH CENTER).
     S,P,D,F,G,L SHELL GENERAL RYS QUADRATURE PROGRAMMED BY
        MICHEL DUPUIS (PACIFIC NORTHWEST NATIONAL LABORATORY).

          --------------------
          2 ELECTRON INTEGRALS
          --------------------

 THE -PK- OPTION IS OFF, THE INTEGRALS ARE NOT IN SUPERMATRIX FORM.
 STORING   15000 INTEGRALS/RECORD ON DISK, USING 16 BYTES/INTEGRAL.
 TWO ELECTRON INTEGRAL EVALUATION REQUIRES  141936 WORDS OF MEMORY.
 II,JST,KST,LST =  1  1  1  1 NREC =         1 INTLOC =    1
 II,JST,KST,LST =  2  1  1  1 NREC =         1 INTLOC =    1
 II,JST,KST,LST =  3  1  1  1 NREC =         1 INTLOC =    1
 II,JST,KST,LST =  4  1  1  1 NREC =         1 INTLOC =   18
 II,JST,KST,LST =  5  1  1  1 NREC =         1 INTLOC =   51
 II,JST,KST,LST =  6  1  1  1 NREC =         1 INTLOC =  109
 II,JST,KST,LST =  7  1  1  1 NREC =         1 INTLOC =  204
 II,JST,KST,LST =  8  1  1  1 NREC =         1 INTLOC =  318
 II,JST,KST,LST =  9  1  1  1 NREC =         1 INTLOC =  558
 II,JST,KST,LST = 10  1  1  1 NREC =         1 INTLOC = 1170
 II,JST,KST,LST = 11  1  1  1 NREC =         1 INTLOC = 2076
 II,JST,KST,LST = 12  1  1  1 NREC =         1 INTLOC = 5853
 II,JST,KST,LST = 13  1  1  1 NREC =         1 INTLOC =11082
 II,JST,KST,LST = 14  1  1  1 NREC =         2 INTLOC = 4131
 II,JST,KST,LST = 15  1  1  1 NREC =         3 INTLOC = 4335
 II,JST,KST,LST = 16  1  1  1 NREC =         6 INTLOC = 5653
 II,JST,KST,LST = 17  1  1  1 NREC =        10 INTLOC = 7844
 II,JST,KST,LST = 18  1  1  1 NREC =        17 INTLOC = 2660
 II,JST,KST,LST = 19  1  1  1 NREC =        26 INTLOC =10853
 II,JST,KST,LST = 20  1  1  1 NREC =        44 INTLOC = 6182
 II,JST,KST,LST = 21  1  1  1 NREC =        44 INTLOC = 9500
 II,JST,KST,LST = 22  1  1  1 NREC =        63 INTLOC = 2382
 II,JST,KST,LST = 23  1  1  1 NREC =        67 INTLOC =10897
 II,JST,KST,LST = 24  1  1  1 NREC =        72 INTLOC =11678
 II,JST,KST,LST = 25  1  1  1 NREC =        72 INTLOC =11678
 II,JST,KST,LST = 26  1  1  1 NREC =        72 INTLOC =11678
 II,JST,KST,LST = 27  1  1  1 NREC =        79 INTLOC = 3139
 II,JST,KST,LST = 28  1  1  1 NREC =        90 INTLOC =13673
 II,JST,KST,LST = 29  1  1  1 NREC =       108 INTLOC = 3477
 II,JST,KST,LST = 30  1  1  1 NREC =       114 INTLOC =12837
 II,JST,KST,LST = 31  1  1  1 NREC =       144 INTLOC = 9651
 II,JST,KST,LST = 32  1  1  1 NREC =       170 INTLOC = 2394
 II,JST,KST,LST = 33  1  1  1 NREC =       212 INTLOC =12699
 II,JST,KST,LST = 34  1  1  1 NREC =       247 INTLOC = 5350
 II,JST,KST,LST = 35  1  1  1 NREC =       352 INTLOC = 8474
 II,JST,KST,LST = 36  1  1  1 NREC =       449 INTLOC =  123
 II,JST,KST,LST = 37  1  1  1 NREC =       549 INTLOC = 1762
 II,JST,KST,LST = 38  1  1  1 NREC =       718 INTLOC = 3949
 II,JST,KST,LST = 39  1  1  1 NREC =       890 INTLOC =12013
 II,JST,KST,LST = 40  1  1  1 NREC =       922 INTLOC = 6074
 II,JST,KST,LST = 41  1  1  1 NREC =       930 INTLOC = 9883
 II,JST,KST,LST = 42  1  1  1 NREC =       947 INTLOC =12941
 II,JST,KST,LST = 43  1  1  1 NREC =       973 INTLOC = 2607
 II,JST,KST,LST = 44  1  1  1 NREC =       996 INTLOC =14722
 II,JST,KST,LST = 45  1  1  1 NREC =      1044 INTLOC =14416
 II,JST,KST,LST = 46  1  1  1 NREC =      1100 INTLOC =11999
 II,JST,KST,LST = 47  1  1  1 NREC =      1148 INTLOC = 2853
 II,JST,KST,LST = 48  1  1  1 NREC =      1218 INTLOC =   48
 II,JST,KST,LST = 49  1  1  1 NREC =      1380 INTLOC = 8324
 II,JST,KST,LST = 50  1  1  1 NREC =      1497 INTLOC =   53
 II,JST,KST,LST = 51  1  1  1 NREC =      1604 INTLOC = 2572
 II,JST,KST,LST = 52  1  1  1 NREC =      1877 INTLOC =14991
 II,JST,KST,LST = 53  1  1  1 NREC =      2128 INTLOC = 8480
 II,JST,KST,LST = 54  1  1  1 NREC =      2182 INTLOC = 2258
 II,JST,KST,LST = 55  1  1  1 NREC =      2182 INTLOC = 2258
 II,JST,KST,LST = 56  1  1  1 NREC =      2223 INTLOC =14729
 II,JST,KST,LST = 57  1  1  1 NREC =      2263 INTLOC = 6093
 II,JST,KST,LST = 58  1  1  1 NREC =      2294 INTLOC =12174
 II,JST,KST,LST = 59  1  1  1 NREC =      2415 INTLOC =  406
 II,JST,KST,LST = 60  1  1  1 NREC =      2496 INTLOC =  323
 II,JST,KST,LST = 61  1  1  1 NREC =      2546 INTLOC =13026
 II,JST,KST,LST = 62  1  1  1 NREC =      2632 INTLOC =10921
 II,JST,KST,LST = 63  1  1  1 NREC =      2803 INTLOC = 7563
 II,JST,KST,LST = 64  1  1  1 NREC =      3048 INTLOC = 7380
 II,JST,KST,LST = 65  1  1  1 NREC =      3219 INTLOC = 9028
 II,JST,KST,LST = 66  1  1  1 NREC =      3656 INTLOC =12548
 TOTAL NUMBER OF NONZERO TWO-ELECTRON INTEGRALS =           311565723
      20772 INTEGRAL RECORDS WERE STORED ON DISK FILE  8.
  ...... END OF TWO-ELECTRON INTEGRALS .....
 CPU     0: STEP CPU TIME=     7.38 TOTAL CPU TIME=          8.3 (      0.1 MIN)
 TOTAL WALL CLOCK TIME=         41.1 SECONDS, CPU UTILIZATION IS    20.09%

          ---------------------------
                 ROHF SCF CALCULATION
          ---------------------------

     NUCLEAR ENERGY =        13.0500376648
     MAXIT =200     NPUNCH=  2     MULT=  1
     EXTRAP=T  DAMP=T  SHIFT=T  RSTRCT=T  DIIS=T  SOSCF=F
     DENSITY MATRIX CONV=  1.00E-05
     ROHF CANONICALIZATION PARAMETERS
             C-C     O-O     V-V
     ALPHA -0.5000  0.5000  1.5000
     BETA   1.5000  0.5000 -0.5000
     MEMORY REQUIRED FOR UHF/ROHF ITERS=    965526 WORDS.

 ITER EX      TOTAL ENERGY        E CHANGE  DENSITY CHANGE    DIIS ERROR      VIR. SHIFT       DAMPING
          * * *   INITIATING DIIS PROCEDURE   * * *
   1  0      -12.1159694460   -12.1159694460   0.000001522   0.000000056     0.000000000     1.000000000
   2  1      -12.1159694460    -0.0000000000   0.000000545   0.000000006     0.000000000     1.000000000

          -----------------
          DENSITY CONVERGED
          -----------------
     TIME TO FORM FOCK OPERATORS=       7.2 SECONDS (       3.6 SEC/ITER)
     TIME TO SOLVE SCF EQUATIONS=       0.3 SECONDS (       0.1 SEC/ITER)

 FINAL ROHF ENERGY IS      -12.1159694460 AFTER   2 ITERATIONS

          --------------------
          SPIN SZ   =    0.000
          S-SQUARED =    0.000
          --------------------

 LZ VALUE ANALYSIS FOR THE MOS
 ----------------------------------------
 MO     1 (    1) HAS LZ(WEIGHT)= 0.00(100.0%) 
 MO     2 (    2) HAS LZ(WEIGHT)= 0.00(100.0%) 
 MO     3 (    3) HAS LZ(WEIGHT)= 0.00(100.0%) 
 MO     4 (    4) HAS LZ(WEIGHT)=-1.00( 50.0%)  1.00( 50.0%) 
 MO     5 (    4) HAS LZ(WEIGHT)=-1.00( 50.0%)  1.00( 50.0%) 
 MO     6 (    5) HAS LZ(WEIGHT)=-1.00( 50.0%)  1.00( 50.0%) 
 MO     7 (    5) HAS LZ(WEIGHT)=-1.00( 50.0%)  1.00( 50.0%) 
 MO     8 (    6) HAS LZ(WEIGHT)= 0.00(100.0%) 
 MO     9 (    7) HAS LZ(WEIGHT)=-1.00( 50.0%)  1.00( 50.0%) 
 MO    10 (    7) HAS LZ(WEIGHT)=-1.00( 50.0%)  1.00( 50.0%) 
 MO    11 (    8) HAS LZ(WEIGHT)= 0.00(100.0%) 
 MO    12 (    9) HAS LZ(WEIGHT)= 0.00(100.0%) 
 MO    13 (   10) HAS LZ(WEIGHT)=-1.00( 50.0%)  1.00( 50.0%) 
 MO    14 (   10) HAS LZ(WEIGHT)=-1.00( 50.0%)  1.00( 50.0%) 
 MO    15 (   11) HAS LZ(WEIGHT)= 0.00(100.0%) 
 MO    16 (   12) HAS LZ(WEIGHT)=-1.00( 50.0%)  1.00( 50.0%) 
 MO    17 (   12) HAS LZ(WEIGHT)=-1.00( 50.0%)  1.00( 50.0%) 
 MO    18 (   13) HAS LZ(WEIGHT)= 0.00(100.0%) 
 MO    19 (   14) HAS LZ(WEIGHT)= 0.00(100.0%) 
 MO    20 (   15) HAS LZ(WEIGHT)= 0.00(100.0%) 
 MO    21 (   16) HAS LZ(WEIGHT)=-1.00( 50.0%)  1.00( 50.0%) 
 MO    22 (   16) HAS LZ(WEIGHT)=-1.00( 50.0%)  1.00( 50.0%) 
 MO    23 (   17) HAS LZ(WEIGHT)= 0.00(100.0%) 
 MO    24 (   18) HAS LZ(WEIGHT)= 0.00(100.0%) 
 MO    25 (   19) HAS LZ(WEIGHT)= 0.00(100.0%) 
 MO    26 (   20) HAS LZ(WEIGHT)=-1.00( 50.0%)  1.00( 50.0%) 
 MO    27 (   20) HAS LZ(WEIGHT)=-1.00( 50.0%)  1.00( 50.0%) 
 MO    28 (   21) HAS LZ(WEIGHT)= 0.00(100.0%) 
 MO    29 (   22) HAS LZ(WEIGHT)=-1.00( 50.0%)  1.00( 50.0%) 
 MO    30 (   22) HAS LZ(WEIGHT)=-1.00( 50.0%)  1.00( 50.0%) 
 MO    31 (   23) HAS LZ(WEIGHT)= 0.00(100.0%) 
 MO    32 (   24) HAS LZ(WEIGHT)= 0.00(100.0%) 
 MO    33 (   25) HAS LZ(WEIGHT)= 0.00(100.0%) 
 MO    34 (   26) HAS LZ(WEIGHT)= 0.00(100.0%) 
 MO    35 (   27) HAS LZ(WEIGHT)=-1.00( 50.0%)  1.00( 50.0%) 
 MO    36 (   27) HAS LZ(WEIGHT)=-1.00( 50.0%)  1.00( 50.0%) 
 MO    37 (   28) HAS LZ(WEIGHT)=-1.00( 50.0%)  1.00( 50.0%) 
 MO    38 (   28) HAS LZ(WEIGHT)=-1.00( 50.0%)  1.00( 50.0%) 
 MO    39 (   29) HAS LZ(WEIGHT)= 0.00(100.0%) 
 MO    40 (   30) HAS LZ(WEIGHT)=-1.00( 50.0%)  1.00( 50.0%) 
 MO    41 (   30) HAS LZ(WEIGHT)=-1.00( 50.0%)  1.00( 50.0%) 
 MO    42 (   31) HAS LZ(WEIGHT)= 0.00(100.0%) 
 MO    43 (   32) HAS LZ(WEIGHT)= 0.00(100.0%) 
 MO    44 (   33) HAS LZ(WEIGHT)= 0.00(100.0%) 
 MO    45 (   34) HAS LZ(WEIGHT)=-3.00( 50.0%)  3.00( 50.0%) 
 MO    46 (   34) HAS LZ(WEIGHT)=-3.00( 50.0%)  3.00( 50.0%) 
 MO    47 (   35) HAS LZ(WEIGHT)=-1.00( 50.0%)  1.00( 50.0%) 
 MO    48 (   35) HAS LZ(WEIGHT)=-1.00( 50.0%)  1.00( 50.0%) 
 MO    49 (   36) HAS LZ(WEIGHT)=-2.00( 50.0%)  2.00( 50.0%) 
 MO    50 (   36) HAS LZ(WEIGHT)=-2.00( 50.0%)  2.00( 50.0%) 
 MO    51 (   37) HAS LZ(WEIGHT)= 0.00(100.0%) 
 MO    52 (   38) HAS LZ(WEIGHT)= 0.00(100.0%) 
 MO    53 (   39) HAS LZ(WEIGHT)= 0.00(100.0%) 
 MO    54 (   40) HAS LZ(WEIGHT)= 0.00(100.0%) 
 MO    55 (   41) HAS LZ(WEIGHT)= 0.00(100.0%) 
 MO    56 (   42) HAS LZ(WEIGHT)=-1.00( 50.0%)  1.00( 50.0%) 
 MO    57 (   42) HAS LZ(WEIGHT)=-1.00( 50.0%)  1.00( 50.0%) 
 MO    58 (   43) HAS LZ(WEIGHT)= 0.00(100.0%) 
 MO    59 (   44) HAS LZ(WEIGHT)=-3.00( 50.0%)  3.00( 50.0%) 
 MO    60 (   44) HAS LZ(WEIGHT)=-3.00( 50.0%)  3.00( 50.0%) 
 MO    61 (   45) HAS LZ(WEIGHT)=-1.00( 50.0%)  1.00( 50.0%) 
 MO    62 (   45) HAS LZ(WEIGHT)=-1.00( 50.0%)  1.00( 50.0%) 
 MO    63 (   46) HAS LZ(WEIGHT)=-1.00( 50.0%)  1.00( 50.0%) 
 MO    64 (   46) HAS LZ(WEIGHT)=-1.00( 50.0%)  1.00( 50.0%) 
 MO    65 (   47) HAS LZ(WEIGHT)=-2.00( 50.0%)  2.00( 50.0%) 
 MO    66 (   47) HAS LZ(WEIGHT)=-2.00( 50.0%)  2.00( 50.0%) 
 MO    67 (   48) HAS LZ(WEIGHT)= 0.00(100.0%) 
 MO    68 (   49) HAS LZ(WEIGHT)= 0.00(100.0%) 
 MO    69 (   50) HAS LZ(WEIGHT)= 0.00(100.0%) 
 MO    70 (   51) HAS LZ(WEIGHT)=-2.00( 50.0%)  2.00( 50.0%) 
 MO    71 (   51) HAS LZ(WEIGHT)=-2.00( 50.0%)  2.00( 50.0%) 
 MO    72 (   52) HAS LZ(WEIGHT)=-1.00( 50.0%)  1.00( 50.0%) 
 MO    73 (   52) HAS LZ(WEIGHT)=-1.00( 50.0%)  1.00( 50.0%) 
 MO    74 (   53) HAS LZ(WEIGHT)= 0.00(100.0%) 
 MO    75 (   54) HAS LZ(WEIGHT)=-1.00( 50.0%)  1.00( 50.0%) 
 MO    76 (   54) HAS LZ(WEIGHT)=-1.00( 50.0%)  1.00( 50.0%) 
 MO    77 (   55) HAS LZ(WEIGHT)= 0.00(100.0%) 
 MO    78 (   56) HAS LZ(WEIGHT)= 0.00(100.0%) 
 MO    79 (   57) HAS LZ(WEIGHT)= 0.00(100.0%) 
 MO    80 (   58) HAS LZ(WEIGHT)=-2.00( 50.0%)  2.00( 50.0%) 
 MO    81 (   58) HAS LZ(WEIGHT)=-2.00( 50.0%)  2.00( 50.0%) 
 MO    82 (   59) HAS LZ(WEIGHT)= 0.00(100.0%) 
 MO    83 (   60) HAS LZ(WEIGHT)= 0.00(100.0%) 
 MO    84 (   61) HAS LZ(WEIGHT)= 0.00(100.0%) 
 MO    85 (   62) HAS LZ(WEIGHT)= 0.00(100.0%) 
 MO    86 (   63) HAS LZ(WEIGHT)=-3.00( 50.0%)  3.00( 50.0%) 
 MO    87 (   63) HAS LZ(WEIGHT)=-3.00( 50.0%)  3.00( 50.0%) 
 MO    88 (   64) HAS LZ(WEIGHT)=-2.00( 50.0%)  2.00( 50.0%) 
 MO    89 (   64) HAS LZ(WEIGHT)=-2.00( 50.0%)  2.00( 50.0%) 
 MO    90 (   65) HAS LZ(WEIGHT)=-1.00( 50.0%)  1.00( 50.0%) 
 MO    91 (   65) HAS LZ(WEIGHT)=-1.00( 50.0%)  1.00( 50.0%) 
 MO    92 (   66) HAS LZ(WEIGHT)= 0.00(100.0%) 
 MO    93 (   67) HAS LZ(WEIGHT)=-2.00( 50.0%)  2.00( 50.0%) 
 MO    94 (   67) HAS LZ(WEIGHT)=-2.00( 50.0%)  2.00( 50.0%) 
 MO    95 (   68) HAS LZ(WEIGHT)=-1.00( 50.0%)  1.00( 50.0%) 
 MO    96 (   68) HAS LZ(WEIGHT)=-1.00( 50.0%)  1.00( 50.0%) 
 MO    97 (   69) HAS LZ(WEIGHT)= 0.00(100.0%) 
 MO    98 (   70) HAS LZ(WEIGHT)=-1.00( 50.0%)  1.00( 50.0%) 
 MO    99 (   70) HAS LZ(WEIGHT)=-1.00( 50.0%)  1.00( 50.0%) 
 MO   100 (   71) HAS LZ(WEIGHT)= 0.00(100.0%) 
 MO   101 (   72) HAS LZ(WEIGHT)=-1.00( 50.0%)  1.00( 50.0%) 
 MO   102 (   72) HAS LZ(WEIGHT)=-1.00( 50.0%)  1.00( 50.0%) 
 MO   103 (   73) HAS LZ(WEIGHT)=-2.00( 50.0%)  2.00( 50.0%) 
 MO   104 (   73) HAS LZ(WEIGHT)=-2.00( 50.0%)  2.00( 50.0%) 
 MO   105 (   74) HAS LZ(WEIGHT)=-1.00( 50.0%)  1.00( 50.0%) 
 MO   106 (   74) HAS LZ(WEIGHT)=-1.00( 50.0%)  1.00( 50.0%) 
 MO   107 (   75) HAS LZ(WEIGHT)=-2.00( 50.0%)  2.00( 50.0%) 
 MO   108 (   75) HAS LZ(WEIGHT)=-2.00( 50.0%)  2.00( 50.0%) 
 MO   109 (   76) HAS LZ(WEIGHT)=-1.00( 50.0%)  1.00( 50.0%) 
 MO   110 (   76) HAS LZ(WEIGHT)=-1.00( 50.0%)  1.00( 50.0%) 
 MO   111 (   77) HAS LZ(WEIGHT)= 0.00(100.0%) 
 MO   112 (   78) HAS LZ(WEIGHT)= 0.00(100.0%) 
 MO   113 (   79) HAS LZ(WEIGHT)= 0.00(100.0%) 
 MO   114 (   80) HAS LZ(WEIGHT)=-1.00( 50.0%)  1.00( 50.0%) 
 MO   115 (   80) HAS LZ(WEIGHT)=-1.00( 50.0%)  1.00( 50.0%) 
 MO   116 (   81) HAS LZ(WEIGHT)=-3.00( 50.0%)  3.00( 50.0%) 
 MO   117 (   81) HAS LZ(WEIGHT)=-3.00( 50.0%)  3.00( 50.0%) 
 MO   118 (   82) HAS LZ(WEIGHT)=-2.00( 50.0%)  2.00( 50.0%) 
 MO   119 (   82) HAS LZ(WEIGHT)=-2.00( 50.0%)  2.00( 50.0%) 
 MO   120 (   83) HAS LZ(WEIGHT)= 0.00(100.0%) 
 MO   121 (   84) HAS LZ(WEIGHT)=-2.00( 50.0%)  2.00( 50.0%) 
 MO   122 (   84) HAS LZ(WEIGHT)=-2.00( 50.0%)  2.00( 50.0%) 
 MO   123 (   85) HAS LZ(WEIGHT)=-1.00( 50.0%)  1.00( 50.0%) 
 MO   124 (   85) HAS LZ(WEIGHT)=-1.00( 50.0%)  1.00( 50.0%) 
 MO   125 (   86) HAS LZ(WEIGHT)= 0.00(100.0%) 
 MO   126 (   87) HAS LZ(WEIGHT)=-1.00( 50.0%)  1.00( 50.0%) 
 MO   127 (   87) HAS LZ(WEIGHT)=-1.00( 50.0%)  1.00( 50.0%) 
 MO   128 (   88) HAS LZ(WEIGHT)=-2.00( 50.0%)  2.00( 50.0%) 
 MO   129 (   88) HAS LZ(WEIGHT)=-2.00( 50.0%)  2.00( 50.0%) 
 MO   130 (   89) HAS LZ(WEIGHT)= 0.00(100.0%) 
 MO   131 (   90) HAS LZ(WEIGHT)=-4.00( 50.0%)  4.00( 50.0%) 
 MO   132 (   90) HAS LZ(WEIGHT)=-4.00( 50.0%)  4.00( 50.0%) 
 MO   133 (   91) HAS LZ(WEIGHT)=-3.00( 50.0%)  3.00( 50.0%) 
 MO   134 (   91) HAS LZ(WEIGHT)=-3.00( 50.0%)  3.00( 50.0%) 
 MO   135 (   92) HAS LZ(WEIGHT)=-1.00( 50.0%)  1.00( 50.0%) 
 MO   136 (   92) HAS LZ(WEIGHT)=-1.00( 50.0%)  1.00( 50.0%) 
 MO   137 (   93) HAS LZ(WEIGHT)=-1.00( 50.0%)  1.00( 50.0%) 
 MO   138 (   93) HAS LZ(WEIGHT)=-1.00( 50.0%)  1.00( 50.0%) 
 MO   139 (   94) HAS LZ(WEIGHT)= 0.00(100.0%) 
 MO   140 (   95) HAS LZ(WEIGHT)= 0.00(100.0%) 
 MO   141 (   96) HAS LZ(WEIGHT)=-2.00( 50.0%)  2.00( 50.0%) 
 MO   142 (   96) HAS LZ(WEIGHT)=-2.00( 50.0%)  2.00( 50.0%) 
 MO   143 (   97) HAS LZ(WEIGHT)=-2.00( 50.0%)  2.00( 50.0%) 
 MO   144 (   97) HAS LZ(WEIGHT)=-2.00( 50.0%)  2.00( 50.0%) 
 MO   145 (   98) HAS LZ(WEIGHT)= 0.00(100.0%) 
 MO   146 (   99) HAS LZ(WEIGHT)=-1.00( 50.0%)  1.00( 50.0%) 
 MO   147 (   99) HAS LZ(WEIGHT)=-1.00( 50.0%)  1.00( 50.0%) 
 MO   148 (  100) HAS LZ(WEIGHT)=-4.00( 50.0%)  4.00( 50.0%) 
 MO   149 (  100) HAS LZ(WEIGHT)=-4.00( 50.0%)  4.00( 50.0%) 
 MO   150 (  101) HAS LZ(WEIGHT)=-1.00( 50.0%)  1.00( 50.0%) 
 MO   151 (  101) HAS LZ(WEIGHT)=-1.00( 50.0%)  1.00( 50.0%) 
 MO   152 (  102) HAS LZ(WEIGHT)= 0.00(100.0%) 
 MO   153 (  103) HAS LZ(WEIGHT)=-1.00( 50.0%)  1.00( 50.0%) 
 MO   154 (  103) HAS LZ(WEIGHT)=-1.00( 50.0%)  1.00( 50.0%) 
 MO   155 (  104) HAS LZ(WEIGHT)=-2.00( 50.0%)  2.00( 50.0%) 
 MO   156 (  104) HAS LZ(WEIGHT)=-2.00( 50.0%)  2.00( 50.0%) 
 MO   157 (  105) HAS LZ(WEIGHT)=-3.00( 50.0%)  3.00( 50.0%) 
 MO   158 (  105) HAS LZ(WEIGHT)=-3.00( 50.0%)  3.00( 50.0%) 
 MO   159 (  106) HAS LZ(WEIGHT)= 0.00(100.0%) 
 MO   160 (  107) HAS LZ(WEIGHT)= 0.00(100.0%) 
 MO   161 (  108) HAS LZ(WEIGHT)=-2.00( 50.0%)  2.00( 50.0%) 
 MO   162 (  108) HAS LZ(WEIGHT)=-2.00( 50.0%)  2.00( 50.0%) 
 MO   163 (  109) HAS LZ(WEIGHT)=-3.00( 50.0%)  3.00( 50.0%) 
 MO   164 (  109) HAS LZ(WEIGHT)=-3.00( 50.0%)  3.00( 50.0%) 
 MO   165 (  110) HAS LZ(WEIGHT)=-3.00( 50.0%)  3.00( 50.0%) 
 MO   166 (  110) HAS LZ(WEIGHT)=-3.00( 50.0%)  3.00( 50.0%) 
 MO   167 (  111) HAS LZ(WEIGHT)=-2.00( 50.0%)  2.00( 50.0%) 
 MO   168 (  111) HAS LZ(WEIGHT)=-2.00( 50.0%)  2.00( 50.0%) 
 MO   169 (  112) HAS LZ(WEIGHT)=-3.00( 50.0%)  3.00( 50.0%) 
 MO   170 (  112) HAS LZ(WEIGHT)=-3.00( 50.0%)  3.00( 50.0%) 
 MO   171 (  113) HAS LZ(WEIGHT)=-1.00( 50.0%)  1.00( 50.0%) 
 MO   172 (  113) HAS LZ(WEIGHT)=-1.00( 50.0%)  1.00( 50.0%) 
 MO   173 (  114) HAS LZ(WEIGHT)= 0.00(100.0%) 
 MO   174 (  115) HAS LZ(WEIGHT)=-1.00( 50.0%)  1.00( 50.0%) 
 MO   175 (  115) HAS LZ(WEIGHT)=-1.00( 50.0%)  1.00( 50.0%) 
 MO   176 (  116) HAS LZ(WEIGHT)= 0.00(100.0%) 
 MO   177 (  117) HAS LZ(WEIGHT)=-2.00( 50.0%)  2.00( 50.0%) 
 MO   178 (  117) HAS LZ(WEIGHT)=-2.00( 50.0%)  2.00( 50.0%) 
 MO   179 (  118) HAS LZ(WEIGHT)=-2.00( 50.0%)  2.00( 50.0%) 
 MO   180 (  118) HAS LZ(WEIGHT)=-2.00( 50.0%)  2.00( 50.0%) 
 MO   181 (  119) HAS LZ(WEIGHT)= 0.00(100.0%) 
 MO   182 (  120) HAS LZ(WEIGHT)=-1.00( 50.0%)  1.00( 50.0%) 
 MO   183 (  120) HAS LZ(WEIGHT)=-1.00( 50.0%)  1.00( 50.0%) 
 MO   184 (  121) HAS LZ(WEIGHT)=-3.00( 50.0%)  3.00( 50.0%) 
 MO   185 (  121) HAS LZ(WEIGHT)=-3.00( 50.0%)  3.00( 50.0%) 
 MO   186 (  122) HAS LZ(WEIGHT)=-2.00( 50.0%)  2.00( 50.0%) 
 MO   187 (  122) HAS LZ(WEIGHT)=-2.00( 50.0%)  2.00( 50.0%) 
 MO   188 (  123) HAS LZ(WEIGHT)= 0.00(100.0%) 
 MO   189 (  124) HAS LZ(WEIGHT)= 0.00(100.0%) 
 MO   190 (  125) HAS LZ(WEIGHT)=-2.00( 50.0%)  2.00( 50.0%) 
 MO   191 (  125) HAS LZ(WEIGHT)=-2.00( 50.0%)  2.00( 50.0%) 
 MO   192 (  126) HAS LZ(WEIGHT)=-1.00( 50.0%)  1.00( 50.0%) 
 MO   193 (  126) HAS LZ(WEIGHT)=-1.00( 50.0%)  1.00( 50.0%) 
 MO   194 (  127) HAS LZ(WEIGHT)= 0.00(100.0%) 
 MO   195 (  128) HAS LZ(WEIGHT)=-3.00( 50.0%)  3.00( 50.0%) 
 MO   196 (  128) HAS LZ(WEIGHT)=-3.00( 50.0%)  3.00( 50.0%) 
 MO   197 (  129) HAS LZ(WEIGHT)=-4.00( 50.0%)  4.00( 50.0%) 
 MO   198 (  129) HAS LZ(WEIGHT)=-4.00( 50.0%)  4.00( 50.0%) 
 MO   199 (  130) HAS LZ(WEIGHT)= 0.00(100.0%) 
 MO   200 (  131) HAS LZ(WEIGHT)=-1.00( 50.0%)  1.00( 50.0%) 
 MO   201 (  131) HAS LZ(WEIGHT)=-1.00( 50.0%)  1.00( 50.0%) 
 MO   202 (  132) HAS LZ(WEIGHT)= 0.00(100.0%) 
 MO   203 (  133) HAS LZ(WEIGHT)= 0.00(100.0%) 
 MO   204 (  134) HAS LZ(WEIGHT)=-1.00( 50.0%)  1.00( 50.0%) 
 MO   205 (  134) HAS LZ(WEIGHT)=-1.00( 50.0%)  1.00( 50.0%) 
 MO   206 (  135) HAS LZ(WEIGHT)=-2.00( 50.0%)  2.00( 50.0%) 
 MO   207 (  135) HAS LZ(WEIGHT)=-2.00( 50.0%)  2.00( 50.0%) 
 MO   208 (  136) HAS LZ(WEIGHT)= 0.00(100.0%) 
 MO   209 (  137) HAS LZ(WEIGHT)=-1.00( 50.0%)  1.00( 50.0%) 
 MO   210 (  137) HAS LZ(WEIGHT)=-1.00( 50.0%)  1.00( 50.0%) 
 MO   211 (  138) HAS LZ(WEIGHT)=-2.00( 50.0%)  2.00( 50.0%) 
 MO   212 (  138) HAS LZ(WEIGHT)=-2.00( 50.0%)  2.00( 50.0%) 
 MO   213 (  139) HAS LZ(WEIGHT)= 0.00(100.0%) 
 MO   214 (  140) HAS LZ(WEIGHT)= 0.00(100.0%) 
 MO   215 (  141) HAS LZ(WEIGHT)=-4.00( 50.0%)  4.00( 50.0%) 
 MO   216 (  141) HAS LZ(WEIGHT)=-4.00( 50.0%)  4.00( 50.0%) 
 MO   217 (  142) HAS LZ(WEIGHT)=-1.00( 50.0%)  1.00( 50.0%) 
 MO   218 (  142) HAS LZ(WEIGHT)=-1.00( 50.0%)  1.00( 50.0%) 
 MO   219 (  143) HAS LZ(WEIGHT)=-1.00( 50.0%)  1.00( 50.0%) 
 MO   220 (  143) HAS LZ(WEIGHT)=-1.00( 50.0%)  1.00( 50.0%) 
 MO   221 (  144) HAS LZ(WEIGHT)= 0.00(100.0%) 
 MO   222 (  145) HAS LZ(WEIGHT)=-2.00( 50.0%)  2.00( 50.0%) 
 MO   223 (  145) HAS LZ(WEIGHT)=-2.00( 50.0%)  2.00( 50.0%) 
 MO   224 (  146) HAS LZ(WEIGHT)=-3.00( 50.0%)  3.00( 50.0%) 
 MO   225 (  146) HAS LZ(WEIGHT)=-3.00( 50.0%)  3.00( 50.0%) 
 MO   226 (  147) HAS LZ(WEIGHT)=-1.00( 50.0%)  1.00( 50.0%) 
 MO   227 (  147) HAS LZ(WEIGHT)=-1.00( 50.0%)  1.00( 50.0%) 
 MO   228 (  148) HAS LZ(WEIGHT)=-2.00( 50.0%)  2.00( 50.0%) 
 MO   229 (  148) HAS LZ(WEIGHT)=-2.00( 50.0%)  2.00( 50.0%) 
 MO   230 (  149) HAS LZ(WEIGHT)= 0.00(100.0%) 
 MO   231 (  150) HAS LZ(WEIGHT)=-1.00( 50.0%)  1.00( 50.0%) 
 MO   232 (  150) HAS LZ(WEIGHT)=-1.00( 50.0%)  1.00( 50.0%) 
 MO   233 (  151) HAS LZ(WEIGHT)= 0.00(100.0%) 
 MO   234 (  152) HAS LZ(WEIGHT)=-3.00( 50.0%)  3.00( 50.0%) 
 MO   235 (  152) HAS LZ(WEIGHT)=-3.00( 50.0%)  3.00( 50.0%) 
 MO   236 (  153) HAS LZ(WEIGHT)= 0.00(100.0%) 
 MO   237 (  154) HAS LZ(WEIGHT)= 0.00(100.0%) 
 MO   238 (  155) HAS LZ(WEIGHT)= 0.00(100.0%) 
 MO   239 (  156) HAS LZ(WEIGHT)=-3.00( 50.0%)  3.00( 50.0%) 
 MO   240 (  156) HAS LZ(WEIGHT)=-3.00( 50.0%)  3.00( 50.0%) 
 MO   241 (  157) HAS LZ(WEIGHT)=-2.00( 50.0%)  2.00( 50.0%) 
 MO   242 (  157) HAS LZ(WEIGHT)=-2.00( 50.0%)  2.00( 50.0%) 
 MO   243 (  158) HAS LZ(WEIGHT)=-1.00( 50.0%)  1.00( 50.0%) 
 MO   244 (  158) HAS LZ(WEIGHT)=-1.00( 50.0%)  1.00( 50.0%) 
 MO   245 (  159) HAS LZ(WEIGHT)= 0.00(100.0%) 
 MO   246 (  160) HAS LZ(WEIGHT)= 0.00(100.0%) 
 MO   247 (  161) HAS LZ(WEIGHT)=-2.00( 50.0%)  2.00( 50.0%) 
 MO   248 (  161) HAS LZ(WEIGHT)=-2.00( 50.0%)  2.00( 50.0%) 
 MO   249 (  162) HAS LZ(WEIGHT)=-2.00( 50.0%)  2.00( 50.0%) 
 MO   250 (  162) HAS LZ(WEIGHT)=-2.00( 50.0%)  2.00( 50.0%) 

          ------------
          EIGENVECTORS
          ------------

                      1          2          3          4          5
                   -1.0394    -0.7708    -0.6824    -0.4111    -0.4111
                     A          A          A          A          A   
    1  C  1  S    0.702730   0.464730   0.017886  -0.000000  -0.000000
    2  C  1  X   -0.000000  -0.000000   0.000000   0.028188   0.610946
    3  C  1  Y   -0.000000  -0.000000  -0.000000   0.610946  -0.028188
    4  C  1  Z   -0.268863   0.312079   0.611224  -0.000000   0.000000
    5  C  1  S   -0.012512  -0.011758  -0.002732   0.000000  -0.000000
    6  C  1  S   -0.122586  -0.000232   0.034745  -0.000000   0.000000
    7  C  1  S   -0.007069   0.026533  -0.107412  -0.000000   0.000000
    8  C  1  S    0.022831  -0.034277  -0.018924  -0.000000   0.000000
    9  C  1  X    0.000000   0.000000   0.000000  -0.000248  -0.005384
   10  C  1  Y    0.000000  -0.000000   0.000000  -0.005384   0.000248
   11  C  1  Z    0.008425  -0.004363  -0.005435  -0.000000   0.000000
   12  C  1  X   -0.000000  -0.000000   0.000000  -0.000973  -0.021081
   13  C  1  Y   -0.000000   0.000000   0.000000  -0.021081   0.000973
   14  C  1  Z    0.079656  -0.015992  -0.085498   0.000000  -0.000000
   15  C  1  X   -0.000000  -0.000000   0.000000  -0.000574  -0.012439
   16  C  1  Y    0.000000   0.000000   0.000000  -0.012439   0.000574
   17  C  1  Z    0.084707  -0.101888  -0.184175   0.000000  -0.000000
   18  C  1  X   -0.000000   0.000000  -0.000000   0.000088   0.001918
   19  C  1  Y   -0.000000  -0.000000   0.000000   0.001918  -0.000088
   20  C  1  Z    0.025041  -0.000963  -0.029271   0.000000  -0.000000
   21  C  1 XX   -0.003304  -0.001858   0.000260  -0.000000   0.000000
   22  C  1 YY   -0.003304  -0.001858   0.000260  -0.000000  -0.000000
   23  C  1 ZZ    0.006607   0.003716  -0.000519   0.000000   0.000000
   24  C  1 XY    0.000000   0.000000   0.000000   0.000000   0.000000
   25  C  1 XZ   -0.000000   0.000000   0.000000  -0.000242  -0.005243
   26  C  1 YZ    0.000000   0.000000   0.000000  -0.005243   0.000242
   27  C  1 XX   -0.011971  -0.009721  -0.000302   0.000000  -0.000000
   28  C  1 YY   -0.011971  -0.009721  -0.000302   0.000000  -0.000000
   29  C  1 ZZ    0.023943   0.019443   0.000605  -0.000000   0.000000
   30  C  1 XY    0.000000  -0.000000   0.000000   0.000000   0.000000
   31  C  1 XZ   -0.000000   0.000000   0.000000  -0.001007  -0.021816
   32  C  1 YZ   -0.000000  -0.000000   0.000000  -0.021816   0.001007
   33  C  1 XX   -0.017449  -0.009071  -0.002398   0.000000  -0.000000
   34  C  1 YY   -0.017449  -0.009071  -0.002398   0.000000  -0.000000
   35  C  1 ZZ    0.034898   0.018142   0.004797  -0.000000   0.000000
   36  C  1 XY    0.000000  -0.000000  -0.000000   0.000000  -0.000000
   37  C  1 XZ   -0.000000   0.000000  -0.000000  -0.000664  -0.014390
   38  C  1 YZ   -0.000000  -0.000000   0.000000  -0.014390   0.000664
   39  C  1 XX   -0.001270  -0.000051  -0.007707   0.000000  -0.000000
   40  C  1 YY   -0.001270  -0.000051  -0.007707   0.000000  -0.000000
   41  C  1 ZZ    0.002540   0.000102   0.015414  -0.000000   0.000000
   42  C  1 XY   -0.000000   0.000000   0.000000   0.000000   0.000000
   43  C  1 XZ    0.000000   0.000000  -0.000000   0.000093   0.002016
   44  C  1 YZ   -0.000000  -0.000000   0.000000   0.002016  -0.000093
   45  C  1 XXX   0.000000  -0.000000   0.000000  -0.000421  -0.009132
   46  C  1 YYY   0.000000  -0.000000   0.000000  -0.009132   0.000421
   47  C  1 ZZZ  -0.010959   0.012290   0.012299   0.000000  -0.000000
   48  C  1 XXY   0.000000  -0.000000   0.000000  -0.004084   0.000188
   49  C  1 XXZ   0.007352  -0.008245  -0.008250  -0.000000   0.000000
   50  C  1 YYX  -0.000000   0.000000  -0.000000  -0.000188  -0.004084
   51  C  1 YYZ   0.007352  -0.008245  -0.008250  -0.000000   0.000000
   52  C  1 ZZX   0.000000   0.000000  -0.000000   0.000754   0.016335
   53  C  1 ZZY  -0.000000   0.000000  -0.000000   0.016335  -0.000754
   54  C  1 XYZ  -0.000000   0.000000   0.000000  -0.000000   0.000000
   55  C  1 XXX   0.000000  -0.000000   0.000000  -0.000121  -0.002629
   56  C  1 YYY   0.000000  -0.000000   0.000000  -0.002629   0.000121
   57  C  1 ZZZ  -0.002124   0.001778   0.004916   0.000000   0.000000
   58  C  1 XXY   0.000000   0.000000   0.000000  -0.001176   0.000054
   59  C  1 XXZ   0.001425  -0.001193  -0.003298  -0.000000  -0.000000
   60  C  1 YYX  -0.000000   0.000000   0.000000  -0.000054  -0.001176
   61  C  1 YYZ   0.001425  -0.001193  -0.003298  -0.000000  -0.000000
   62  C  1 ZZX   0.000000   0.000000  -0.000000   0.000217   0.004703
   63  C  1 ZZY   0.000000   0.000000  -0.000000   0.004703  -0.000217
   64  C  1 XYZ   0.000000   0.000000   0.000000  -0.000000   0.000000
   65  C  1 XXX  -0.000000   0.000000  -0.000000   0.000213   0.004624
   66  C  1 YYY  -0.000000   0.000000  -0.000000   0.004624  -0.000213
   67  C  1 ZZZ   0.010187  -0.007198  -0.008465   0.000000  -0.000000
   68  C  1 XXY   0.000000   0.000000  -0.000000   0.002068  -0.000095
   69  C  1 XXZ  -0.006834   0.004829   0.005678  -0.000000   0.000000
   70  C  1 YYX   0.000000  -0.000000   0.000000   0.000095   0.002068
   71  C  1 YYZ  -0.006834   0.004829   0.005679  -0.000000   0.000000
   72  C  1 ZZX   0.000000  -0.000000   0.000000  -0.000382  -0.008272
   73  C  1 ZZY   0.000000  -0.000000   0.000000  -0.008272   0.000382
   74  C  1 XYZ   0.000000  -0.000000  -0.000000   0.000000  -0.000000
   75  C  1XXXX   0.000657   0.000481  -0.000376  -0.000000   0.000000
   76  C  1YYYY   0.000657   0.000481  -0.000376  -0.000000   0.000000
   77  C  1ZZZZ   0.001751   0.001282  -0.001004  -0.000000   0.000000
   78  C  1XXXY   0.000000   0.000000   0.000000   0.000000   0.000000
   79  C  1XXXZ   0.000000  -0.000000   0.000000   0.000081   0.001754
   80  C  1YYYX   0.000000   0.000000   0.000000   0.000000  -0.000000
   81  C  1YYYZ   0.000000   0.000000   0.000000   0.001754  -0.000081
   82  C  1ZZZX   0.000000   0.000000  -0.000000  -0.000108  -0.002338
   83  C  1ZZZY  -0.000000  -0.000000   0.000000  -0.002338   0.000108
   84  C  1XXYY   0.000384   0.000281  -0.000220  -0.000000   0.000000
   85  C  1XXZZ  -0.001538  -0.001126   0.000881   0.000000  -0.000000
   86  C  1YYZZ  -0.001538  -0.001126   0.000881   0.000000  -0.000000
   87  C  1XXYZ   0.000000   0.000000   0.000000   0.000784  -0.000036
   88  C  1YYXZ   0.000000   0.000000   0.000000   0.000036   0.000784
   89  C  1ZZXY   0.000000   0.000000   0.000000  -0.000000   0.000000
   90  C  1XXXX   0.000235  -0.000787  -0.000081   0.000000  -0.000000
   91  C  1YYYY   0.000235  -0.000787  -0.000081   0.000000  -0.000000
   92  C  1ZZZZ   0.000627  -0.002098  -0.000216   0.000000  -0.000000
   93  C  1XXXY  -0.000000   0.000000   0.000000   0.000000   0.000000
   94  C  1XXXZ   0.000000  -0.000000   0.000000   0.000004   0.000076
   95  C  1YYYX  -0.000000   0.000000   0.000000   0.000000   0.000000
   96  C  1YYYZ   0.000000   0.000000  -0.000000   0.000076  -0.000004
   97  C  1ZZZX  -0.000000   0.000000  -0.000000  -0.000005  -0.000102
   98  C  1ZZZY  -0.000000  -0.000000   0.000000  -0.000102   0.000005
   99  C  1XXYY   0.000138  -0.000461  -0.000048   0.000000  -0.000000
  100  C  1XXZZ  -0.000551   0.001843   0.000190  -0.000000   0.000000
  101  C  1YYZZ  -0.000551   0.001843   0.000190  -0.000000   0.000000
  102  C  1XXYZ   0.000000   0.000000  -0.000000   0.000034  -0.000002
  103  C  1YYXZ   0.000000  -0.000000   0.000000   0.000002   0.000034
  104  C  1ZZXY   0.000000  -0.000000  -0.000000   0.000000  -0.000000
  105  C  2  S    0.702730  -0.464730   0.017886  -0.000000   0.000000
  106  C  2  X    0.000000  -0.000000  -0.000000   0.028188   0.610946
  107  C  2  Y   -0.000000   0.000000  -0.000000   0.610946  -0.028188
  108  C  2  Z    0.268863   0.312079  -0.611224   0.000000   0.000000
  109  C  2  S   -0.012512   0.011758  -0.002732  -0.000000  -0.000000
  110  C  2  S   -0.122586   0.000232   0.034745   0.000000  -0.000000
  111  C  2  S   -0.007069  -0.026533  -0.107412   0.000000  -0.000000
  112  C  2  S    0.022831   0.034277  -0.018924   0.000000  -0.000000
  113  C  2  X   -0.000000   0.000000  -0.000000  -0.000248  -0.005384
  114  C  2  Y    0.000000  -0.000000   0.000000  -0.005384   0.000248
  115  C  2  Z   -0.008425  -0.004363   0.005435  -0.000000  -0.000000
  116  C  2  X   -0.000000   0.000000  -0.000000  -0.000973  -0.021081
  117  C  2  Y    0.000000  -0.000000   0.000000  -0.021081   0.000973
  118  C  2  Z   -0.079656  -0.015992   0.085498   0.000000  -0.000000
  119  C  2  X    0.000000   0.000000  -0.000000  -0.000574  -0.012439
  120  C  2  Y   -0.000000  -0.000000   0.000000  -0.012439   0.000574
  121  C  2  Z   -0.084707  -0.101888   0.184175   0.000000  -0.000000
  122  C  2  X    0.000000  -0.000000   0.000000   0.000088   0.001918
  123  C  2  Y    0.000000   0.000000   0.000000   0.001918  -0.000088
  124  C  2  Z   -0.025041  -0.000963   0.029271   0.000000  -0.000000
  125  C  2 XX   -0.003304   0.001858   0.000260   0.000000   0.000000
  126  C  2 YY   -0.003304   0.001858   0.000260   0.000000   0.000000
  127  C  2 ZZ    0.006607  -0.003716  -0.000519  -0.000000  -0.000000
  128  C  2 XY    0.000000   0.000000   0.000000  -0.000000   0.000000
  129  C  2 XZ    0.000000  -0.000000   0.000000   0.000242   0.005243
  130  C  2 YZ    0.000000   0.000000  -0.000000   0.005243  -0.000242
  131  C  2 XX   -0.011971   0.009721  -0.000302  -0.000000  -0.000000
  132  C  2 YY   -0.011971   0.009721  -0.000302  -0.000000   0.000000
  133  C  2 ZZ    0.023943  -0.019443   0.000605   0.000000  -0.000000
  134  C  2 XY   -0.000000   0.000000   0.000000  -0.000000   0.000000
  135  C  2 XZ   -0.000000   0.000000  -0.000000   0.001007   0.021816
  136  C  2 YZ   -0.000000  -0.000000   0.000000   0.021816  -0.001007
  137  C  2 XX   -0.017449   0.009071  -0.002398  -0.000000   0.000000
  138  C  2 YY   -0.017449   0.009071  -0.002398  -0.000000   0.000000
  139  C  2 ZZ    0.034898  -0.018142   0.004797   0.000000  -0.000000
  140  C  2 XY   -0.000000   0.000000   0.000000  -0.000000   0.000000
  141  C  2 XZ    0.000000   0.000000  -0.000000   0.000664   0.014390
  142  C  2 YZ   -0.000000  -0.000000   0.000000   0.014390  -0.000664
  143  C  2 XX   -0.001270   0.000051  -0.007707  -0.000000   0.000000
  144  C  2 YY   -0.001270   0.000051  -0.007707  -0.000000   0.000000
  145  C  2 ZZ    0.002540  -0.000102   0.015414   0.000000  -0.000000
  146  C  2 XY    0.000000   0.000000  -0.000000  -0.000000  -0.000000
  147  C  2 XZ    0.000000   0.000000  -0.000000  -0.000093  -0.002016
  148  C  2 YZ   -0.000000  -0.000000  -0.000000  -0.002016   0.000093
  149  C  2 XXX  -0.000000   0.000000  -0.000000  -0.000421  -0.009132
  150  C  2 YYY  -0.000000   0.000000   0.000000  -0.009132   0.000421
  151  C  2 ZZZ   0.010959   0.012290  -0.012299   0.000000  -0.000000
  152  C  2 XXY   0.000000  -0.000000   0.000000  -0.004084   0.000188
  153  C  2 XXZ  -0.007352  -0.008245   0.008250  -0.000000   0.000000
  154  C  2 YYX   0.000000   0.000000   0.000000  -0.000188  -0.004084
  155  C  2 YYZ  -0.007352  -0.008245   0.008250  -0.000000   0.000000
  156  C  2 ZZX   0.000000  -0.000000   0.000000   0.000754   0.016335
  157  C  2 ZZY   0.000000   0.000000  -0.000000   0.016335  -0.000754
  158  C  2 XYZ  -0.000000   0.000000   0.000000  -0.000000   0.000000
  159  C  2 XXX   0.000000   0.000000  -0.000000  -0.000121  -0.002629
  160  C  2 YYY   0.000000   0.000000   0.000000  -0.002629   0.000121
  161  C  2 ZZZ   0.002124   0.001778  -0.004916  -0.000000  -0.000000
  162  C  2 XXY   0.000000  -0.000000   0.000000  -0.001176   0.000054
  163  C  2 XXZ  -0.001425  -0.001193   0.003298   0.000000   0.000000
  164  C  2 YYX   0.000000   0.000000   0.000000  -0.000054  -0.001176
  165  C  2 YYZ  -0.001425  -0.001193   0.003298   0.000000   0.000000
  166  C  2 ZZX   0.000000  -0.000000   0.000000   0.000217   0.004703
  167  C  2 ZZY   0.000000   0.000000  -0.000000   0.004703  -0.000217
  168  C  2 XYZ   0.000000   0.000000   0.000000  -0.000000   0.000000
  169  C  2 XXX   0.000000  -0.000000   0.000000   0.000213   0.004624
  170  C  2 YYY   0.000000   0.000000  -0.000000   0.004624  -0.000213
  171  C  2 ZZZ  -0.010187  -0.007198   0.008465   0.000000  -0.000000
  172  C  2 XXY  -0.000000   0.000000  -0.000000   0.002068  -0.000095
  173  C  2 XXZ   0.006834   0.004829  -0.005679  -0.000000   0.000000
  174  C  2 YYX   0.000000  -0.000000  -0.000000   0.000095   0.002068
  175  C  2 YYZ   0.006834   0.004829  -0.005678  -0.000000   0.000000
  176  C  2 ZZX  -0.000000   0.000000  -0.000000  -0.000382  -0.008272
  177  C  2 ZZY   0.000000  -0.000000   0.000000  -0.008272   0.000382
  178  C  2 XYZ   0.000000  -0.000000  -0.000000   0.000000  -0.000000
  179  C  2XXXX   0.000657  -0.000481  -0.000376   0.000000   0.000000
  180  C  2YYYY   0.000657  -0.000481  -0.000376   0.000000   0.000000
  181  C  2ZZZZ   0.001751  -0.001282  -0.001004   0.000000   0.000000
  182  C  2XXXY   0.000000   0.000000   0.000000  -0.000000   0.000000
  183  C  2XXXZ   0.000000  -0.000000   0.000000  -0.000081  -0.001754
  184  C  2YYYX   0.000000   0.000000   0.000000   0.000000   0.000000
  185  C  2YYYZ   0.000000   0.000000   0.000000  -0.001754   0.000081
  186  C  2ZZZX   0.000000   0.000000  -0.000000   0.000108   0.002338
  187  C  2ZZZY  -0.000000  -0.000000   0.000000   0.002338  -0.000108
  188  C  2XXYY   0.000384  -0.000281  -0.000220   0.000000   0.000000
  189  C  2XXZZ  -0.001538   0.001126   0.000881  -0.000000  -0.000000
  190  C  2YYZZ  -0.001538   0.001126   0.000881  -0.000000  -0.000000
  191  C  2XXYZ   0.000000   0.000000   0.000000  -0.000784   0.000036
  192  C  2YYXZ   0.000000   0.000000   0.000000  -0.000036  -0.000784
  193  C  2ZZXY   0.000000   0.000000   0.000000   0.000000  -0.000000
  194  C  2XXXX   0.000235   0.000787  -0.000081  -0.000000   0.000000
  195  C  2YYYY   0.000235   0.000787  -0.000081  -0.000000   0.000000
  196  C  2ZZZZ   0.000627   0.002098  -0.000216  -0.000000   0.000000
  197  C  2XXXY   0.000000  -0.000000  -0.000000   0.000000   0.000000
  198  C  2XXXZ  -0.000000  -0.000000   0.000000  -0.000004  -0.000076
  199  C  2YYYX   0.000000  -0.000000  -0.000000   0.000000  -0.000000
  200  C  2YYYZ   0.000000   0.000000   0.000000  -0.000076   0.000004
  201  C  2ZZZX   0.000000   0.000000  -0.000000   0.000005   0.000102
  202  C  2ZZZY  -0.000000  -0.000000   0.000000   0.000102  -0.000005
  203  C  2XXYY   0.000138   0.000461  -0.000048  -0.000000   0.000000
  204  C  2XXZZ  -0.000551  -0.001843   0.000190   0.000000  -0.000000
  205  C  2YYZZ  -0.000551  -0.001843   0.000190   0.000000  -0.000000
  206  C  2XXYZ   0.000000   0.000000   0.000000  -0.000034   0.000002
  207  C  2YYXZ   0.000000  -0.000000   0.000000  -0.000002  -0.000034
  208  C  2ZZXY  -0.000000   0.000000   0.000000   0.000000   0.000000
  209  H  3  S    0.183782   0.559330   0.563353   0.000000   0.000000
  210  H  3  S   -0.008331  -0.003399   0.003048  -0.000000   0.000000
  211  H  3  S   -0.127523  -0.078581   0.011581  -0.000000   0.000000
  212  H  3  S   -0.103924  -0.170542  -0.121581   0.000000   0.000000
  213  H  3  S   -0.017784  -0.027665  -0.018765  -0.000000   0.000000
  214  H  3  X   -0.000000  -0.000000   0.000000  -0.000057  -0.001245
  215  H  3  Y    0.000000   0.000000  -0.000000  -0.001245   0.000057
  216  H  3  Z    0.018859  -0.008872  -0.036895   0.000000  -0.000000
  217  H  3  X    0.000000  -0.000000   0.000000   0.000418   0.009053
  218  H  3  Y    0.000000   0.000000  -0.000000   0.009053  -0.000418
  219  H  3  Z    0.010767   0.002396  -0.012752  -0.000000  -0.000000
  220  H  3  X    0.000000  -0.000000   0.000000   0.000362   0.007837
  221  H  3  Y    0.000000   0.000000  -0.000000   0.007837  -0.000362
  222  H  3  Z   -0.000282  -0.011145  -0.014830   0.000000   0.000000
  223  H  3  X    0.000000   0.000000   0.000000   0.000077   0.001668
  224  H  3  Y   -0.000000  -0.000000   0.000000   0.001668  -0.000077
  225  H  3  Z   -0.001597  -0.003991  -0.003822  -0.000000   0.000000
  226  H  3 XX    0.000815   0.000247  -0.000912  -0.000000   0.000000
  227  H  3 YY    0.000815   0.000247  -0.000912  -0.000000  -0.000000
  228  H  3 ZZ   -0.001630  -0.000495   0.001824   0.000000   0.000000
  229  H  3 XY   -0.000000   0.000000   0.000000   0.000000   0.000000
  230  H  3 XZ   -0.000000   0.000000  -0.000000   0.000053   0.001159
  231  H  3 YZ   -0.000000  -0.000000   0.000000   0.001159  -0.000053
  232  H  3 XX    0.000479  -0.000627  -0.001036  -0.000000   0.000000
  233  H  3 YY    0.000479  -0.000627  -0.001036  -0.000000   0.000000
  234  H  3 ZZ   -0.000959   0.001253   0.002072   0.000000  -0.000000
  235  H  3 XY    0.000000   0.000000   0.000000   0.000000   0.000000
  236  H  3 XZ   -0.000000   0.000000  -0.000000  -0.000159  -0.003437
  237  H  3 YZ   -0.000000  -0.000000   0.000000  -0.003437   0.000159
  238  H  3 XX   -0.000115  -0.000582  -0.000708  -0.000000   0.000000
  239  H  3 YY   -0.000115  -0.000582  -0.000708   0.000000   0.000000
  240  H  3 ZZ    0.000230   0.001163   0.001416   0.000000  -0.000000
  241  H  3 XY    0.000000   0.000000   0.000000   0.000000   0.000000
  242  H  3 XZ    0.000000   0.000000   0.000000  -0.000050  -0.001074
  243  H  3 YZ    0.000000   0.000000  -0.000000  -0.001074   0.000050
  244  H  3 XXX   0.000000  -0.000000   0.000000  -0.000024  -0.000523
  245  H  3 YYY  -0.000000  -0.000000   0.000000  -0.000523   0.000024
  246  H  3 ZZZ  -0.000061  -0.000670   0.000007  -0.000000   0.000000
  247  H  3 XXY  -0.000000   0.000000   0.000000  -0.000234   0.000011
  248  H  3 XXZ   0.000041   0.000449  -0.000004   0.000000  -0.000000
  249  H  3 YYX   0.000000  -0.000000   0.000000  -0.000011  -0.000234
  250  H  3 YYZ   0.000041   0.000449  -0.000004   0.000000  -0.000000
  251  H  3 ZZX   0.000000   0.000000  -0.000000   0.000043   0.000936
  252  H  3 ZZY   0.000000   0.000000  -0.000000   0.000936  -0.000043
  253  H  3 XYZ   0.000000  -0.000000  -0.000000   0.000000   0.000000
  254  H  3 XXX   0.000000   0.000000   0.000000  -0.000022  -0.000467
  255  H  3 YYY   0.000000  -0.000000   0.000000  -0.000467   0.000022
  256  H  3 ZZZ  -0.000022  -0.000314  -0.000289  -0.000000   0.000000
  257  H  3 XXY   0.000000   0.000000   0.000000  -0.000209   0.000010
  258  H  3 XXZ   0.000015   0.000211   0.000194   0.000000  -0.000000
  259  H  3 YYX   0.000000   0.000000   0.000000  -0.000010  -0.000209
  260  H  3 YYZ   0.000015   0.000211   0.000194   0.000000  -0.000000
  261  H  3 ZZX   0.000000  -0.000000   0.000000   0.000039   0.000835
  262  H  3 ZZY   0.000000   0.000000  -0.000000   0.000835  -0.000039
  263  H  3 XYZ   0.000000   0.000000   0.000000   0.000000   0.000000
  264  H  4  S    0.183782  -0.559330   0.563353   0.000000  -0.000000
  265  H  4  S   -0.008331   0.003399   0.003048   0.000000  -0.000000
  266  H  4  S   -0.127523   0.078581   0.011581   0.000000  -0.000000
  267  H  4  S   -0.103924   0.170542  -0.121581  -0.000000  -0.000000
  268  H  4  S   -0.017784   0.027665  -0.018765   0.000000  -0.000000
  269  H  4  X    0.000000   0.000000  -0.000000  -0.000057  -0.001245
  270  H  4  Y   -0.000000  -0.000000  -0.000000  -0.001245   0.000057
  271  H  4  Z   -0.018859  -0.008872   0.036895   0.000000  -0.000000
  272  H  4  X    0.000000   0.000000  -0.000000   0.000418   0.009053
  273  H  4  Y   -0.000000  -0.000000  -0.000000   0.009053  -0.000418
  274  H  4  Z   -0.010767   0.002396   0.012752  -0.000000  -0.000000
  275  H  4  X    0.000000   0.000000  -0.000000   0.000362   0.007837
  276  H  4  Y   -0.000000   0.000000  -0.000000   0.007837  -0.000362
  277  H  4  Z    0.000282  -0.011145   0.014830  -0.000000  -0.000000
  278  H  4  X    0.000000   0.000000   0.000000   0.000077   0.001668
  279  H  4  Y    0.000000   0.000000   0.000000   0.001668  -0.000077
  280  H  4  Z    0.001597  -0.003991   0.003822   0.000000   0.000000
  281  H  4 XX    0.000815  -0.000247  -0.000912   0.000000   0.000000
  282  H  4 YY    0.000815  -0.000247  -0.000912   0.000000   0.000000
  283  H  4 ZZ   -0.001630   0.000495   0.001824  -0.000000  -0.000000
  284  H  4 XY    0.000000  -0.000000   0.000000   0.000000   0.000000
  285  H  4 XZ    0.000000   0.000000  -0.000000  -0.000053  -0.001159
  286  H  4 YZ   -0.000000  -0.000000  -0.000000  -0.001159   0.000053
  287  H  4 XX    0.000479   0.000627  -0.001036   0.000000   0.000000
  288  H  4 YY    0.000479   0.000627  -0.001036   0.000000   0.000000
  289  H  4 ZZ   -0.000959  -0.001253   0.002072  -0.000000  -0.000000
  290  H  4 XY    0.000000  -0.000000   0.000000  -0.000000   0.000000
  291  H  4 XZ    0.000000   0.000000  -0.000000   0.000159   0.003437
  292  H  4 YZ   -0.000000  -0.000000  -0.000000   0.003437  -0.000159
  293  H  4 XX   -0.000115   0.000582  -0.000708   0.000000   0.000000
  294  H  4 YY   -0.000115   0.000582  -0.000708   0.000000   0.000000
  295  H  4 ZZ    0.000230  -0.001163   0.001416  -0.000000  -0.000000
  296  H  4 XY    0.000000   0.000000   0.000000   0.000000   0.000000
  297  H  4 XZ    0.000000   0.000000   0.000000   0.000050   0.001074
  298  H  4 YZ    0.000000   0.000000   0.000000   0.001074  -0.000050
  299  H  4 XXX   0.000000   0.000000   0.000000  -0.000024  -0.000523
  300  H  4 YYY   0.000000  -0.000000   0.000000  -0.000523   0.000024
  301  H  4 ZZZ   0.000061  -0.000670  -0.000007  -0.000000   0.000000
  302  H  4 XXY   0.000000   0.000000   0.000000  -0.000234   0.000011
  303  H  4 XXZ  -0.000041   0.000449   0.000004   0.000000  -0.000000
  304  H  4 YYX   0.000000   0.000000   0.000000  -0.000011  -0.000234
  305  H  4 YYZ  -0.000041   0.000449   0.000004   0.000000   0.000000
  306  H  4 ZZX   0.000000   0.000000   0.000000   0.000043   0.000936
  307  H  4 ZZY  -0.000000   0.000000  -0.000000   0.000936  -0.000043
  308  H  4 XYZ   0.000000  -0.000000   0.000000  -0.000000   0.000000
  309  H  4 XXX   0.000000  -0.000000   0.000000  -0.000022  -0.000467
  310  H  4 YYY   0.000000   0.000000   0.000000  -0.000467   0.000022
  311  H  4 ZZZ   0.000022  -0.000314   0.000289  -0.000000  -0.000000
  312  H  4 XXY   0.000000   0.000000   0.000000  -0.000209   0.000010
  313  H  4 XXZ  -0.000015   0.000211  -0.000194   0.000000   0.000000
  314  H  4 YYX   0.000000   0.000000   0.000000  -0.000010  -0.000209
  315  H  4 YYZ  -0.000015   0.000211  -0.000194   0.000000   0.000000
  316  H  4 ZZX   0.000000   0.000000  -0.000000   0.000039   0.000835
  317  H  4 ZZY   0.000000  -0.000000   0.000000   0.000835  -0.000039
  318  H  4 XYZ   0.000000   0.000000   0.000000   0.000000   0.000000

                      6          7          8          9         10
                    0.1021     0.1021     0.1279     0.2025     0.2025
                     A          A          A          A          A   
    1  C  1  S   -0.000000   0.000000   0.154549   0.000000  -0.000000
    2  C  1  X    0.068292   0.160407  -0.000000   0.318964   0.321653
    3  C  1  Y   -0.160407   0.068292  -0.000000   0.321653  -0.318964
    4  C  1  Z   -0.000000   0.000000   0.069477   0.000000  -0.000000
    5  C  1  S    0.000000  -0.000000  -0.122482   0.000000  -0.000000
    6  C  1  S   -0.000001   0.000001   2.805288  -0.000001   0.000000
    7  C  1  S   -0.000008   0.000004  32.805073  -0.000005   0.000004
    8  C  1  S   -0.000011   0.000005  98.746280  -0.000003   0.000002
    9  C  1  X    0.005825   0.013682   0.000000  -0.022607  -0.022798
   10  C  1  Y   -0.013682   0.005825   0.000000  -0.022798   0.022607
   11  C  1  Z   -0.000000   0.000000   0.092744  -0.000000   0.000000
   12  C  1  X   -0.155894  -0.366168   0.000000   0.455707   0.459548
   13  C  1  Y    0.366168  -0.155894   0.000000   0.459548  -0.455707
   14  C  1  Z    0.000001  -0.000001  -2.271108   0.000001  -0.000000
   15  C  1  X    0.866580   2.035448   0.000000  -2.111496  -2.129293
   16  C  1  Y   -2.035448   0.866580   0.000001  -2.129293   2.111496
   17  C  1  Z    0.000004  -0.000002 -21.521656   0.000003  -0.000003
   18  C  1  X    1.144521   2.688285  -0.000000  -2.106828  -2.124586
   19  C  1  Y   -2.688285   1.144521  -0.000000  -2.124586   2.106828
   20  C  1  Z    0.000003  -0.000001 -31.801481   0.000001  -0.000001
   21  C  1 XX   -0.000000   0.000000   0.002593  -0.000000   0.000000
   22  C  1 YY   -0.000000   0.000000   0.002593  -0.000000   0.000000
   23  C  1 ZZ    0.000000  -0.000000  -0.005187   0.000000  -0.000000
   24  C  1 XY    0.000000   0.000000   0.000000   0.000000  -0.000000
   25  C  1 XZ   -0.000274  -0.000644   0.000000   0.007406   0.007468
   26  C  1 YZ    0.000644  -0.000274   0.000000   0.007468  -0.007406
   27  C  1 XX    0.000000  -0.000000  -0.069050   0.000000  -0.000000
   28  C  1 YY    0.000000  -0.000000  -0.069050   0.000000  -0.000000
   29  C  1 ZZ   -0.000000   0.000000   0.138101  -0.000000   0.000000
   30  C  1 XY   -0.000000  -0.000000  -0.000000   0.000000   0.000000
   31  C  1 XZ    0.015360   0.036078  -0.000000  -0.020820  -0.020995
   32  C  1 YZ   -0.036078   0.015360  -0.000000  -0.020995   0.020820
   33  C  1 XX    0.000000  -0.000000  -0.405601   0.000000  -0.000000
   34  C  1 YY    0.000000  -0.000000  -0.405601   0.000000  -0.000000
   35  C  1 ZZ   -0.000000   0.000000   0.811202  -0.000000   0.000000
   36  C  1 XY   -0.000000  -0.000000   0.000000   0.000000   0.000000
   37  C  1 XZ    0.185597   0.435936  -0.000000  -0.580308  -0.585199
   38  C  1 YZ   -0.435936   0.185597  -0.000000  -0.585199   0.580308
   39  C  1 XX    0.000000  -0.000000  -1.009585   0.000000  -0.000000
   40  C  1 YY    0.000000  -0.000000  -1.009585   0.000000  -0.000000
   41  C  1 ZZ   -0.000001   0.000000   2.019170  -0.000000   0.000000
   42  C  1 XY    0.000000  -0.000000  -0.000000  -0.000000  -0.000000
   43  C  1 XZ   -0.661375  -1.553457  -0.000000   1.701188   1.715527
   44  C  1 YZ    1.553457  -0.661375  -0.000001   1.715527  -1.701188
   45  C  1 XXX   0.012319   0.028935   0.000000  -0.041709  -0.042060
   46  C  1 YYY  -0.028935   0.012319  -0.000000  -0.042060   0.041709
   47  C  1 ZZZ   0.000000   0.000000  -0.118899  -0.000000  -0.000000
   48  C  1 XXY  -0.012940   0.005509  -0.000000  -0.018810   0.018653
   49  C  1 XXZ  -0.000000  -0.000000   0.079760   0.000000   0.000000
   50  C  1 YYX   0.005509   0.012940   0.000000  -0.018653  -0.018810
   51  C  1 YYZ  -0.000000  -0.000000   0.079760   0.000000   0.000000
   52  C  1 ZZX  -0.022036  -0.051760  -0.000000   0.074610   0.075239
   53  C  1 ZZY   0.051760  -0.022036   0.000000   0.075239  -0.074610
   54  C  1 XYZ   0.000000   0.000000  -0.000000  -0.000000  -0.000000
   55  C  1 XXX  -0.000125  -0.000294   0.000000   0.000634   0.000640
   56  C  1 YYY   0.000294  -0.000125  -0.000000   0.000640  -0.000634
   57  C  1 ZZZ   0.000000  -0.000000  -0.002501  -0.000000  -0.000000
   58  C  1 XXY   0.000131  -0.000056  -0.000000   0.000286  -0.000284
   59  C  1 XXZ  -0.000000  -0.000000   0.001678   0.000000   0.000000
   60  C  1 YYX  -0.000056  -0.000131   0.000000   0.000284   0.000286
   61  C  1 YYZ  -0.000000   0.000000   0.001678   0.000000   0.000000
   62  C  1 ZZX   0.000224   0.000525  -0.000000  -0.001135  -0.001144
   63  C  1 ZZY  -0.000525   0.000224   0.000000  -0.001144   0.001135
   64  C  1 XYZ   0.000000   0.000000  -0.000000  -0.000000  -0.000000
   65  C  1 XXX   0.006790   0.015948  -0.000000  -0.011598  -0.011696
   66  C  1 YYY  -0.015948   0.006790   0.000000  -0.011696   0.011598
   67  C  1 ZZZ   0.000000  -0.000000  -0.033810   0.000000  -0.000000
   68  C  1 XXY  -0.007132   0.003037   0.000000  -0.005231   0.005187
   69  C  1 XXZ  -0.000000   0.000000   0.022680  -0.000000   0.000000
   70  C  1 YYX   0.003037   0.007132  -0.000000  -0.005187  -0.005231
   71  C  1 YYZ  -0.000000   0.000000   0.022680  -0.000000   0.000000
   72  C  1 ZZX  -0.012146  -0.028529   0.000000   0.020747   0.020922
   73  C  1 ZZY   0.028529  -0.012146  -0.000000   0.020922  -0.020747
   74  C  1 XYZ  -0.000000  -0.000000   0.000000   0.000000   0.000000
   75  C  1XXXX  -0.000000   0.000000   0.000098  -0.000000  -0.000000
   76  C  1YYYY  -0.000000   0.000000   0.000098  -0.000000  -0.000000
   77  C  1ZZZZ  -0.000000   0.000000   0.000262  -0.000000  -0.000000
   78  C  1XXXY  -0.000000   0.000000   0.000000   0.000000   0.000000
   79  C  1XXXZ   0.000421   0.000989   0.000000  -0.001374  -0.001386
   80  C  1YYYX   0.000000  -0.000000  -0.000000   0.000000   0.000000
   81  C  1YYYZ  -0.000989   0.000421   0.000000  -0.001386   0.001374
   82  C  1ZZZX  -0.000561  -0.001318  -0.000000   0.001832   0.001848
   83  C  1ZZZY   0.001318  -0.000561  -0.000000   0.001848  -0.001832
   84  C  1XXYY  -0.000000   0.000000   0.000057  -0.000000  -0.000000
   85  C  1XXZZ   0.000000  -0.000000  -0.000230   0.000000   0.000000
   86  C  1YYZZ   0.000000  -0.000000  -0.000230   0.000000   0.000000
   87  C  1XXYZ  -0.000442   0.000188   0.000000  -0.000620   0.000615
   88  C  1YYXZ   0.000188   0.000442   0.000000  -0.000615  -0.000620
   89  C  1ZZXY   0.000000   0.000000  -0.000000  -0.000000  -0.000000
   90  C  1XXXX   0.000000  -0.000000  -0.026127   0.000000  -0.000000
   91  C  1YYYY   0.000000  -0.000000  -0.026127   0.000000  -0.000000
   92  C  1ZZZZ   0.000000  -0.000000  -0.069673   0.000000  -0.000000
   93  C  1XXXY   0.000000   0.000000  -0.000000  -0.000000  -0.000000
   94  C  1XXXZ  -0.009343  -0.021945  -0.000000   0.030437   0.030694
   95  C  1YYYX   0.000000   0.000000  -0.000000  -0.000000  -0.000000
   96  C  1YYYZ   0.021945  -0.009343   0.000000   0.030694  -0.030437
   97  C  1ZZZX   0.012457   0.029260   0.000000  -0.040583  -0.040925
   98  C  1ZZZY  -0.029260   0.012457  -0.000000  -0.040925   0.040583
   99  C  1XXYY   0.000000  -0.000000  -0.015299   0.000000  -0.000000
  100  C  1XXZZ  -0.000000   0.000000   0.061195  -0.000000   0.000000
  101  C  1YYZZ  -0.000000   0.000000   0.061195  -0.000000   0.000000
  102  C  1XXYZ   0.009814  -0.004178   0.000000   0.013727  -0.013612
  103  C  1YYXZ  -0.004178  -0.009814  -0.000000   0.013612   0.013727
  104  C  1ZZXY  -0.000000  -0.000000   0.000000   0.000000   0.000000
  105  C  2  S    0.000000  -0.000000  -0.154549  -0.000000   0.000000
  106  C  2  X   -0.068292  -0.160407  -0.000000  -0.318964  -0.321653
  107  C  2  Y    0.160407  -0.068292   0.000000  -0.321653   0.318964
  108  C  2  Z   -0.000000   0.000000   0.069477   0.000000  -0.000000
  109  C  2  S   -0.000000   0.000000   0.122482  -0.000000   0.000000
  110  C  2  S    0.000001  -0.000001  -2.805287   0.000001  -0.000000
  111  C  2  S    0.000008  -0.000004 -32.805073   0.000005  -0.000004
  112  C  2  S    0.000011  -0.000005 -98.746280   0.000003  -0.000002
  113  C  2  X   -0.005825  -0.013682   0.000000   0.022607   0.022798
  114  C  2  Y    0.013682  -0.005825   0.000000   0.022798  -0.022607
  115  C  2  Z   -0.000000   0.000000   0.092744  -0.000000   0.000000
  116  C  2  X    0.155894   0.366168   0.000000  -0.455707  -0.459548
  117  C  2  Y   -0.366168   0.155894  -0.000000  -0.459548   0.455707
  118  C  2  Z    0.000001  -0.000001  -2.271108   0.000001  -0.000000
  119  C  2  X   -0.866580  -2.035448  -0.000000   2.111496   2.129293
  120  C  2  Y    2.035448  -0.866580  -0.000001   2.129293  -2.111496
  121  C  2  Z    0.000004  -0.000002 -21.521656   0.000003  -0.000003
  122  C  2  X   -1.144521  -2.688285   0.000000   2.106828   2.124586
  123  C  2  Y    2.688285  -1.144521   0.000000   2.124586  -2.106828
  124  C  2  Z    0.000003  -0.000002 -31.801481   0.000001  -0.000001
  125  C  2 XX    0.000000  -0.000000  -0.002593   0.000000  -0.000000
  126  C  2 YY    0.000000  -0.000000  -0.002593   0.000000  -0.000000
  127  C  2 ZZ   -0.000000   0.000000   0.005187  -0.000000   0.000000
  128  C  2 XY   -0.000000  -0.000000   0.000000   0.000000   0.000000
  129  C  2 XZ   -0.000274  -0.000644   0.000000   0.007406   0.007468
  130  C  2 YZ    0.000644  -0.000274   0.000000   0.007468  -0.007406
  131  C  2 XX   -0.000000   0.000000   0.069050  -0.000000   0.000000
  132  C  2 YY   -0.000000   0.000000   0.069050  -0.000000   0.000000
  133  C  2 ZZ    0.000000  -0.000000  -0.138101   0.000000  -0.000000
  134  C  2 XY    0.000000   0.000000  -0.000000  -0.000000  -0.000000
  135  C  2 XZ    0.015360   0.036078   0.000000  -0.020820  -0.020995
  136  C  2 YZ   -0.036078   0.015360  -0.000000  -0.020995   0.020820
  137  C  2 XX   -0.000000   0.000000   0.405601  -0.000000   0.000000
  138  C  2 YY   -0.000000   0.000000   0.405601  -0.000000   0.000000
  139  C  2 ZZ    0.000000  -0.000000  -0.811202   0.000000  -0.000000
  140  C  2 XY    0.000000   0.000000   0.000000  -0.000000  -0.000000
  141  C  2 XZ    0.185597   0.435936  -0.000000  -0.580308  -0.585199
  142  C  2 YZ   -0.435936   0.185597  -0.000000  -0.585199   0.580308
  143  C  2 XX   -0.000000   0.000000   1.009585  -0.000000   0.000000
[...]

               ----- POPULATIONS IN EACH AO -----
                             MULLIKEN      LOWDIN
              1  C  1  S      1.58858     0.10305
              2  C  1  X      1.02440     0.19032
              3  C  1  Y      1.02440     0.19032
              4  C  1  Z      1.37084     0.24617
              5  C  1  S     -0.02380     0.04289
              6  C  1  S     -0.19610     0.08217
              7  C  1  S     -0.04882     0.05657
              8  C  1  S      0.00707     0.02240
              9  C  1  X     -0.00701     0.11809
             10  C  1  Y     -0.00701     0.11809
             11  C  1  Z     -0.01621     0.19035
             12  C  1  X     -0.03430     0.09202
             13  C  1  Y     -0.03430     0.09202
             14  C  1  Z     -0.19285     0.14001
             15  C  1  X     -0.01774     0.07353
             16  C  1  Y     -0.01774     0.07353
             17  C  1  Z     -0.27564     0.06273
             18  C  1  X      0.00171     0.02333
             19  C  1  Y      0.00171     0.02333
             20  C  1  Z     -0.01096     0.01717
             21  C  1 XX      0.00145     0.03281
             22  C  1 YY      0.00000     0.03281
             23  C  1 ZZ      0.00000     0.04593
             24  C  1 XY      0.00069     0.00000
             25  C  1 XZ      0.00069     0.00050
             26  C  1 YZ      0.00000     0.00050
             27  C  1 XX      0.01310     0.04030
             28  C  1 YY      0.00000     0.04030
             29  C  1 ZZ      0.00000     0.09529
             30  C  1 XY      0.00921     0.00000
             31  C  1 XZ      0.00921     0.00476
             32  C  1 YZ      0.00000     0.00476
             33  C  1 XX      0.01722     0.01255
             34  C  1 YY      0.00000     0.01255
             35  C  1 ZZ      0.00000     0.06414
             36  C  1 XY      0.00982     0.00000
             37  C  1 XZ      0.00982     0.01539
             38  C  1 YZ      0.00000     0.01539
             39  C  1 XX      0.01291     0.00081
             40  C  1 YY      0.00000     0.00081
             41  C  1 ZZ      0.00000     0.03810
             42  C  1 XY     -0.00112     0.00000
             43  C  1 XZ     -0.00112     0.01106
             44  C  1 YZ      0.00000     0.01106
             45  C  1 XXX     0.00000     0.04257
             46  C  1 YYY     0.00000     0.04257
             47  C  1 ZZZ     0.00729     0.10987
             48  C  1 XXY     0.00686     0.01985
             49  C  1 XXZ     0.00729     0.02273
             50  C  1 YYX     0.00000     0.01985
             51  C  1 YYZ     0.00000     0.02273
             52  C  1 ZZX     0.00000     0.05170
             53  C  1 ZZY     0.00000     0.05170
             54  C  1 XYZ     0.00000     0.00000
             55  C  1 XXX     0.00000     0.04298
             56  C  1 YYY     0.00000     0.04298
             57  C  1 ZZZ     0.00073     0.09337
             58  C  1 XXY     0.00117     0.02086
             59  C  1 XXZ     0.00073     0.03051
             60  C  1 YYX     0.00000     0.02086
             61  C  1 YYZ     0.00000     0.03051
             62  C  1 ZZX     0.00000     0.02678
             63  C  1 ZZY     0.00000     0.02678
             64  C  1 XYZ     0.00000     0.00000
             65  C  1 XXX     0.00000     0.03728
             66  C  1 YYY     0.00000     0.03728
             67  C  1 ZZZ    -0.00341     0.11709
             68  C  1 XXY    -0.00459     0.01731
             69  C  1 XXZ    -0.00341     0.02286
             70  C  1 YYX     0.00000     0.01731
             71  C  1 YYZ     0.00000     0.02286
             72  C  1 ZZX     0.00000     0.04486
             73  C  1 ZZY     0.00000     0.04486
             74  C  1 XYZ     0.00000     0.00000
             75  C  1XXXX     0.00000     0.02100
             76  C  1YYYY     0.00000     0.02100
             77  C  1ZZZZ     0.00000     0.08238
             78  C  1XXXY     0.00035     0.00000
             79  C  1XXXZ     0.00020     0.00137
             80  C  1YYYX     0.00035     0.00000
             81  C  1YYYZ     0.00000     0.00137
             82  C  1ZZZX     0.00000     0.00686
             83  C  1ZZZY     0.00000     0.00686
             84  C  1XXYY     0.00000     0.02291
             85  C  1XXZZ     0.00000     0.03339
             86  C  1YYZZ     0.00000     0.03339
             87  C  1XXYZ     0.00000     0.00063
             88  C  1YYXZ     0.00000     0.00063
             89  C  1ZZXY     0.00000     0.00000
             90  C  1XXXX     0.00000     0.00599
             91  C  1YYYY     0.00000     0.00599
             92  C  1ZZZZ     0.00000     0.06258
             93  C  1XXXY     0.00003     0.00000
             94  C  1XXXZ     0.00021     0.00451
             95  C  1YYYX     0.00003     0.00000
             96  C  1YYYZ     0.00000     0.00451
             97  C  1ZZZX     0.00000     0.02330
             98  C  1ZZZY     0.00000     0.02330
             99  C  1XXYY     0.00000     0.00661
            100  C  1XXZZ     0.00000     0.01639
            101  C  1YYZZ     0.00000     0.01639
            102  C  1XXYZ     0.00000     0.00206
            103  C  1YYXZ     0.00000     0.00206
            104  C  1ZZXY     0.00000     0.00000
            105  C  2  S      1.58858     0.10305
            106  C  2  X      1.02440     0.19032
            107  C  2  Y      1.02440     0.19032
            108  C  2  Z      1.37084     0.24617
            109  C  2  S     -0.02380     0.04289
            110  C  2  S     -0.19610     0.08217
            111  C  2  S     -0.04882     0.05657
            112  C  2  S      0.00707     0.02240
            113  C  2  X     -0.00701     0.11809
            114  C  2  Y     -0.00701     0.11809
            115  C  2  Z     -0.01621     0.19035
            116  C  2  X     -0.03430     0.09202
            117  C  2  Y     -0.03430     0.09202
            118  C  2  Z     -0.19285     0.14001
            119  C  2  X     -0.01774     0.07353
            120  C  2  Y     -0.01774     0.07353
            121  C  2  Z     -0.27564     0.06273
            122  C  2  X      0.00171     0.02333
            123  C  2  Y      0.00171     0.02333
            124  C  2  Z     -0.01096     0.01717
            125  C  2 XX      0.00145     0.03281
            126  C  2 YY      0.00000     0.03281
            127  C  2 ZZ      0.00000     0.04593
            128  C  2 XY      0.00069     0.00000
            129  C  2 XZ      0.00069     0.00050
            130  C  2 YZ      0.00000     0.00050
            131  C  2 XX      0.01310     0.04030
            132  C  2 YY      0.00000     0.04030
            133  C  2 ZZ      0.00000     0.09529
            134  C  2 XY      0.00921     0.00000
            135  C  2 XZ      0.00921     0.00476
            136  C  2 YZ      0.00000     0.00476
            137  C  2 XX      0.01722     0.01255
            138  C  2 YY      0.00000     0.01255
            139  C  2 ZZ      0.00000     0.06414
            140  C  2 XY      0.00982     0.00000
            141  C  2 XZ      0.00982     0.01539
            142  C  2 YZ      0.00000     0.01539
            143  C  2 XX      0.01291     0.00081
            144  C  2 YY      0.00000     0.00081
            145  C  2 ZZ      0.00000     0.03810
            146  C  2 XY     -0.00112     0.00000
            147  C  2 XZ     -0.00112     0.01106
            148  C  2 YZ      0.00000     0.01106
            149  C  2 XXX     0.00000     0.04257
            150  C  2 YYY     0.00000     0.04257
            151  C  2 ZZZ     0.00729     0.10987
            152  C  2 XXY     0.00686     0.01985
            153  C  2 XXZ     0.00729     0.02273
            154  C  2 YYX     0.00000     0.01985
            155  C  2 YYZ     0.00000     0.02273
            156  C  2 ZZX     0.00000     0.05170
            157  C  2 ZZY     0.00000     0.05170
            158  C  2 XYZ     0.00000     0.00000
            159  C  2 XXX     0.00000     0.04298
            160  C  2 YYY     0.00000     0.04298
            161  C  2 ZZZ     0.00073     0.09337
            162  C  2 XXY     0.00117     0.02086
            163  C  2 XXZ     0.00073     0.03051
            164  C  2 YYX     0.00000     0.02086
            165  C  2 YYZ     0.00000     0.03051
            166  C  2 ZZX     0.00000     0.02678
            167  C  2 ZZY     0.00000     0.02678
            168  C  2 XYZ     0.00000     0.00000
            169  C  2 XXX     0.00000     0.03728
            170  C  2 YYY     0.00000     0.03728
            171  C  2 ZZZ    -0.00341     0.11709
            172  C  2 XXY    -0.00459     0.01731
            173  C  2 XXZ    -0.00341     0.02286
            174  C  2 YYX     0.00000     0.01731
            175  C  2 YYZ     0.00000     0.02286
            176  C  2 ZZX     0.00000     0.04486
            177  C  2 ZZY     0.00000     0.04486
            178  C  2 XYZ     0.00000     0.00000
            179  C  2XXXX     0.00000     0.02100
            180  C  2YYYY     0.00000     0.02100
            181  C  2ZZZZ     0.00000     0.08238
            182  C  2XXXY     0.00035     0.00000
            183  C  2XXXZ     0.00020     0.00137
            184  C  2YYYX     0.00035     0.00000
            185  C  2YYYZ     0.00000     0.00137
            186  C  2ZZZX     0.00000     0.00686
            187  C  2ZZZY     0.00000     0.00686
            188  C  2XXYY     0.00000     0.02291
            189  C  2XXZZ     0.00000     0.03339
            190  C  2YYZZ     0.00000     0.03339
            191  C  2XXYZ     0.00000     0.00063
            192  C  2YYXZ     0.00000     0.00063
            193  C  2ZZXY     0.00000     0.00000
            194  C  2XXXX     0.00000     0.00599
            195  C  2YYYY     0.00000     0.00599
            196  C  2ZZZZ     0.00000     0.06258
            197  C  2XXXY     0.00003     0.00000
            198  C  2XXXZ     0.00021     0.00451
            199  C  2YYYX     0.00003     0.00000
            200  C  2YYYZ     0.00000     0.00451
            201  C  2ZZZX     0.00000     0.02330
            202  C  2ZZZY     0.00000     0.02330
            203  C  2XXYY     0.00000     0.00661
            204  C  2XXZZ     0.00000     0.01639
            205  C  2YYZZ     0.00000     0.01639
            206  C  2XXYZ     0.00000     0.00206
            207  C  2YYXZ     0.00000     0.00206
            208  C  2ZZXY     0.00000     0.00000
            209  H  3  S      1.43032     0.14204
            210  H  3  S     -0.00603     0.01003
            211  H  3  S     -0.17786     0.04016
            212  H  3  S     -0.41512     0.10368
            213  H  3  S     -0.06115     0.14197
            214  H  3  X     -0.00107     0.02667
            215  H  3  Y     -0.00107     0.02667
            216  H  3  Z     -0.02309     0.02084
            217  H  3  X      0.00634     0.01619
            218  H  3  Y      0.00634     0.01619
            219  H  3  Z     -0.00814     0.01692
            220  H  3  X      0.00263     0.00277
            221  H  3  Y      0.00263     0.00277
            222  H  3  Z      0.01023     0.01100
            223  H  3  X      0.00019     0.00030
            224  H  3  Y      0.00019     0.00030
            225  H  3  Z      0.00166     0.00141
            226  H  3 XX     -0.00197     0.00957
            227  H  3 YY      0.00000     0.00957
            228  H  3 ZZ      0.00000     0.03678
            229  H  3 XY     -0.00106     0.00000
            230  H  3 XZ     -0.00106     0.02902
            231  H  3 YZ      0.00000     0.02902
            232  H  3 XX      0.00018     0.02411
            233  H  3 YY      0.00000     0.02411
            234  H  3 ZZ      0.00000     0.06836
            235  H  3 XY      0.00156     0.00000
            236  H  3 XZ      0.00156     0.00720
            237  H  3 YZ      0.00000     0.00720
            238  H  3 XX      0.00029     0.03170
            239  H  3 YY      0.00000     0.03170
            240  H  3 ZZ      0.00000     0.04871
            241  H  3 XY      0.00012     0.00000
            242  H  3 XZ      0.00012     0.00016
            243  H  3 YZ      0.00000     0.00016
            244  H  3 XXX     0.00000     0.00834
            245  H  3 YYY     0.00000     0.00834
            246  H  3 ZZZ     0.00050     0.01938
            247  H  3 XXY     0.00002     0.00375
            248  H  3 XXZ     0.00050     0.00404
            249  H  3 YYX     0.00000     0.00375
            250  H  3 YYZ     0.00000     0.00404
            251  H  3 ZZX     0.00000     0.02884
            252  H  3 ZZY     0.00000     0.02884
            253  H  3 XYZ     0.00000     0.00000
            254  H  3 XXX     0.00000     0.00135
            255  H  3 YYY     0.00000     0.00135
            256  H  3 ZZZ     0.00012     0.01580
            257  H  3 XXY     0.00004     0.00060
            258  H  3 XXZ     0.00012     0.00181
            259  H  3 YYX     0.00000     0.00060
            260  H  3 YYZ     0.00000     0.00181
            261  H  3 ZZX     0.00000     0.00288
            262  H  3 ZZY     0.00000     0.00288
            263  H  3 XYZ     0.00000     0.00000
            264  H  4  S      1.43032     0.14204
            265  H  4  S     -0.00603     0.01003
            266  H  4  S     -0.17786     0.04016
            267  H  4  S     -0.41512     0.10368
            268  H  4  S     -0.06115     0.14197
            269  H  4  X     -0.00107     0.02667
            270  H  4  Y     -0.00107     0.02667
            271  H  4  Z     -0.02309     0.02084
            272  H  4  X      0.00634     0.01619
            273  H  4  Y      0.00634     0.01619
            274  H  4  Z     -0.00814     0.01692
            275  H  4  X      0.00263     0.00277
            276  H  4  Y      0.00263     0.00277
            277  H  4  Z      0.01023     0.01100
            278  H  4  X      0.00019     0.00030
            279  H  4  Y      0.00019     0.00030
            280  H  4  Z      0.00166     0.00141
            281  H  4 XX     -0.00197     0.00957
            282  H  4 YY      0.00000     0.00957
            283  H  4 ZZ      0.00000     0.03678
            284  H  4 XY     -0.00106     0.00000
            285  H  4 XZ     -0.00106     0.02902
            286  H  4 YZ      0.00000     0.02902
            287  H  4 XX      0.00018     0.02411
            288  H  4 YY      0.00000     0.02411
            289  H  4 ZZ      0.00000     0.06836
            290  H  4 XY      0.00156     0.00000
            291  H  4 XZ      0.00156     0.00720
            292  H  4 YZ      0.00000     0.00720
            293  H  4 XX      0.00029     0.03170
            294  H  4 YY      0.00000     0.03170
            295  H  4 ZZ      0.00000     0.04871
            296  H  4 XY      0.00012     0.00000
            297  H  4 XZ      0.00012     0.00016
            298  H  4 YZ      0.00000     0.00016
            299  H  4 XXX     0.00000     0.00834
            300  H  4 YYY     0.00000     0.00834
            301  H  4 ZZZ     0.00050     0.01938
            302  H  4 XXY     0.00002     0.00375
            303  H  4 XXZ     0.00050     0.00404
            304  H  4 YYX     0.00000     0.00375
            305  H  4 YYZ     0.00000     0.00404
            306  H  4 ZZX     0.00000     0.02884
            307  H  4 ZZY     0.00000     0.02884
            308  H  4 XYZ     0.00000     0.00000
            309  H  4 XXX     0.00000     0.00135
            310  H  4 YYY     0.00000     0.00135
            311  H  4 ZZZ     0.00012     0.01580
            312  H  4 XXY     0.00004     0.00060
            313  H  4 XXZ     0.00012     0.00181
            314  H  4 YYX     0.00000     0.00060
            315  H  4 YYZ     0.00000     0.00181
            316  H  4 ZZX     0.00000     0.00288
            317  H  4 ZZY     0.00000     0.00288
            318  H  4 XYZ     0.00000     0.00000

          ----- MULLIKEN ATOMIC OVERLAP POPULATIONS -----
          (OFF-DIAGONAL ELEMENTS NEED TO BE MULTIPLIED BY 2)

             1           2           3           4

    1    2.9464346
    2    1.1555550   2.9464346
    3    0.2520943  -0.1221372   0.6007138
    4   -0.1221372   0.2520943   0.0373824   0.6007138

          TOTAL MULLIKEN AND LOWDIN ATOMIC POPULATIONS
       ATOM         MULL.POP.    CHARGE          LOW.POP.     CHARGE
    1 C             4.231947   -0.231947         3.924328    0.075672
    2 C             4.231947   -0.231947         3.924328    0.075672
    3 H             0.768053    0.231947         1.075672   -0.075672
    4 H             0.768053    0.231947         1.075672   -0.075672

          MULLIKEN SPHERICAL HARMONIC POPULATIONS
       ATOM           S       P       D      F      G      H      I    TOTAL
    1 C             1.33    2.81    0.08   0.01   0.00   0.00   0.00    4.23
    2 C             1.33    2.81    0.08   0.01   0.00   0.00   0.00    4.23
    3 H             0.77   -0.00   -0.00   0.00   0.00   0.00   0.00    0.77
    4 H             0.77   -0.00   -0.00   0.00   0.00   0.00   0.00    0.77

          -------------------------------
          BOND ORDER AND VALENCE ANALYSIS     BOND ORDER THRESHOLD=0.050
          -------------------------------

                   BOND                       BOND                       BOND
  ATOM PAIR DIST  ORDER      ATOM PAIR DIST  ORDER      ATOM PAIR DIST  ORDER
    1   2  1.203  3.039        1   3  1.063  0.835        2   4  1.063  0.835

                       TOTAL       BONDED        FREE
      ATOM            VALENCE     VALENCE     VALENCE
    1 C                 3.857       3.857      -0.000
    2 C                 3.857       3.857       0.000
    3 H                 0.824       0.824       0.000
    4 H                 0.824       0.824       0.000

          -----------------------------------------
          ATOMIC SPIN DENSITY AT THE NUCLEUS (A.U.)
          -----------------------------------------
                            SPIN DENS    ALPHA DENS     BETA DENS
    1  C            4.0     0.0000000       0.00226       0.00226
    2  C            4.0     0.0000000       0.00226       0.00226
    3  H            1.0     0.0000000       0.19174       0.19174
    4  H            1.0     0.0000000       0.19174       0.19174

          ---------------------
          ELECTROSTATIC MOMENTS
          ---------------------

 POINT   1           X           Y           Z (BOHR)    CHARGE
                 0.000000    0.000000   -0.000000       -0.00 (A.U.)
         DX          DY          DZ         /D/  (DEBYE)
    -0.000000   -0.000000    0.000000    0.000000
 ...... END OF PROPERTY EVALUATION ......
 CPU     0: STEP CPU TIME=     0.31 TOTAL CPU TIME=         16.2 (      0.3 MIN)
 TOTAL WALL CLOCK TIME=         57.5 SECONDS, CPU UTILIZATION IS    28.25%
               1117717  WORDS OF DYNAMIC MEMORY USED
 EXECUTION OF GAMESS TERMINATED NORMALLY Thu Feb  4 18:00:36 2021
 DDI: 263640 bytes (0.3 MB / 0 MWords) used by master data server.

 ----------------------------------------
 CPU timing information for all processes
 ========================================
 0: 14.449 + 1.890 = 16.340
 1: 52.522 + 4.478 = 57.01
 2: 58.85 + 1.572 = 59.658
 3: 58.17 + 1.635 = 59.653
 ----------------------------------------
unset echo
----- accounting info -----
Files used on the master node nid00010 were:
-rw-rw---- 1 haihan haihan   1294469 Feb  4 17:59 /global/cscratch1/sd/haihan/gamess_38711439/scf.F05
-rw-rw---- 1 haihan haihan 962224144 Feb  4 18:00 /global/cscratch1/sd/haihan/gamess_38711439/scf.F08
-rw-rw---- 1 haihan haihan 294912000 Feb  4 18:00 /global/cscratch1/sd/haihan/gamess_38711439/scf.F10
-rw-rw---- 1 haihan haihan   1295386 Feb  4 18:00 /global/cscratch1/sd/haihan/gamess_38711439/scf.dat
ls: No match.
ls: No match.
ls: No match.
Thu Feb  4 18:00:38 PST 2021
0.662u 0.489s 1:03.66 1.7%	0+0k 1468+12368io 5pf+0w
