/global/u2/h/haihan/Research/C2H2/qmcT/045/runs/optJ12
  Input file(s): optJ12.in.xml 

=====================================================
                    QMCPACK 3.9.9

       (c) Copyright 2003-  QMCPACK developers

                    Please cite:
 J. Kim et al. J. Phys. Cond. Mat. 30 195901 (2018)
      https://doi.org/10.1088/1361-648X/aab9c3

  Git branch: develop
  Last git commit: a854014790c5309de44bee11aacb72110d1159f0
  Last git commit date: Thu Aug 6 17:11:13 2020 -0400
  Last git commit subject: Merge pull request #2622 from Hyeondeok-Shin/deterministic_test
=====================================================
  Global options 

  Total number of MPI ranks = 4
  Number of MPI groups      = 1
  MPI group ID              = 0
  Number of ranks in group  = 4
  MPI ranks per node        = 4
  OMP 1st level threads     = 1
  OMP nested threading disabled or only 1 thread on the 2nd level

  Precision used in this calculation, see definitions in the manual:
  Base precision      = double
  Full precision      = double

  Structure-of-arrays (SoA) optimization enabled

  Input XML = optJ12.in.xml

  Project = optJ12
  date    = 2021-02-04 20:08:20 PST
  host    = nid02822

 Random Number
 -------------
  Offset for the random number seeds based on time: 180

  Range of prime numbers to use as seeds over processors and threads = 1091-1109


 Lattice
 -------
  Lattice is not specified for the Open BC. Add a huge box.
  Simulation cell radius   = 5000000000.000000 bohr
  Wigner-Seitz cell radius = 5000000000.000000 bohr

 Particle Set 
 ------------
  Name: ion0
  Initializing the lattice by the global supercell
  All the species have the same mass 1.000000
  Particle set size: 4

 Particle Set 
 ------------
  Name: e
  Initializing the lattice by the global supercell
  All the species have the same mass 1.000000
  Particle set size: 10

 Wavefunction setup: 
 ------------------- 
  Name: psi0
  LCAO: SoaAtomicBasisSet<MultiQuintic,1>
Reading BasisSet from HDF5 file:../scf/scf.h5
<input node="atomicBasisSet" name="gaussian" expandYlm="pyscf" angular="spherical" elementType="C" normalized="no" type="Numerical" expM="0" />
  AO BasisSet for C
   Spherical Harmonics contain (-1)^m factor
   Angular momentum m expanded as -l, ... ,l, with the exception of L=1 (1,-1,0)
   Grid is created by the input paremters in h5
    Using log grid ri = 0.000001 rf = 100.000000 npts = 1001
   R(n,l,m,s) 0 0 0 0
   R(n,l,m,s) 1 0 0 0
   R(n,l,m,s) 2 0 0 0
   R(n,l,m,s) 3 0 0 0
   R(n,l,m,s) 4 0 0 0
   R(n,l,m,s) 5 1 0 0
   R(n,l,m,s) 6 1 0 0
   R(n,l,m,s) 7 1 0 0
   R(n,l,m,s) 8 1 0 0
   R(n,l,m,s) 9 1 0 0
   R(n,l,m,s) 10 2 0 0
   R(n,l,m,s) 11 2 0 0
   R(n,l,m,s) 12 2 0 0
   R(n,l,m,s) 13 2 0 0
   R(n,l,m,s) 14 3 0 0
   R(n,l,m,s) 15 3 0 0
   R(n,l,m,s) 16 3 0 0
   R(n,l,m,s) 17 4 0 0
   R(n,l,m,s) 18 4 0 0
Expanding Ylm as L=1 as (1,-1,0) and L>1 as -l,-l+1,...,l-1,l
   Adding 1 spherical orbitals
   Adding 1 spherical orbitals
   Adding 1 spherical orbitals
   Adding 1 spherical orbitals
   Adding 1 spherical orbitals
   Adding 3 spherical orbitals
   Adding 3 spherical orbitals
   Adding 3 spherical orbitals
   Adding 3 spherical orbitals
   Adding 3 spherical orbitals
   Adding 5 spherical orbitals
   Adding 5 spherical orbitals
   Adding 5 spherical orbitals
   Adding 5 spherical orbitals
   Adding 7 spherical orbitals
   Adding 7 spherical orbitals
   Adding 7 spherical orbitals
   Adding 9 spherical orbitals
   Adding 9 spherical orbitals
  Setting cutoff radius 7192398756697620.000000

   Maximum Angular Momentum  = 4
   Number of Radial functors = 19
   Basis size                = 79

<input node="atomicBasisSet" name="gaussian" expandYlm="pyscf" angular="spherical" elementType="H" normalized="no" type="Numerical" expM="0" />
  AO BasisSet for H
   Spherical Harmonics contain (-1)^m factor
   Angular momentum m expanded as -l, ... ,l, with the exception of L=1 (1,-1,0)
   Grid is created by the input paremters in h5
    Using log grid ri = 0.000001 rf = 100.000000 npts = 1001
   R(n,l,m,s) 0 0 0 0
   R(n,l,m,s) 1 0 0 0
   R(n,l,m,s) 2 0 0 0
   R(n,l,m,s) 3 0 0 0
   R(n,l,m,s) 4 0 0 0
   R(n,l,m,s) 5 1 0 0
   R(n,l,m,s) 6 1 0 0
   R(n,l,m,s) 7 1 0 0
   R(n,l,m,s) 8 1 0 0
   R(n,l,m,s) 9 2 0 0
   R(n,l,m,s) 10 2 0 0
   R(n,l,m,s) 11 2 0 0
   R(n,l,m,s) 12 3 0 0
   R(n,l,m,s) 13 3 0 0
Expanding Ylm as L=1 as (1,-1,0) and L>1 as -l,-l+1,...,l-1,l
   Adding 1 spherical orbitals
   Adding 1 spherical orbitals
   Adding 1 spherical orbitals
   Adding 1 spherical orbitals
   Adding 1 spherical orbitals
   Adding 3 spherical orbitals
   Adding 3 spherical orbitals
   Adding 3 spherical orbitals
   Adding 3 spherical orbitals
   Adding 5 spherical orbitals
   Adding 5 spherical orbitals
   Adding 5 spherical orbitals
   Adding 7 spherical orbitals
   Adding 7 spherical orbitals
  Setting cutoff radius 995674776766.907715

   Maximum Angular Momentum  = 3
   Number of Radial functors = 14
   Basis size                = 46

  Created SPOSet builder named 'LCAOBSet' of type molecularorbital
Reuse SPOSetBuilder "LCAOBSet" type MolecularOrbital
  Building SPOSet '' with '' basis set.
Reuse SPOSetBuilder "LCAOBSet" type MolecularOrbital
  Building SPOSet '' with '' basis set.
  Creating a determinant updet group=0 sposet=updet
  Reusing a SPO set updet
  Setting delay_rank by default!
  Using rank-1 Sherman-Morrison Fahy update (SM1)
  Using DiracDeterminant with DelayedUpdate engine

  Creating a determinant downdet group=1 sposet=downdet
  Reusing a SPO set downdet
  Setting delay_rank by default!
  Using rank-1 Sherman-Morrison Fahy update (SM1)
  Using DiracDeterminant with DelayedUpdate engine

  Added a fermionic WaveFunctionComponent SlaterDet

   Jastrow
   -------
    Name: J1   Type: One-Body   Function: bspline

    Radial function for element: H
     Number of parameters: 10
     Cusp: 0.000000
     Cutoff radius: 5.000000

     Name                        Value Type Recompute Use Index
     ---- ---------------------------- ---- --------- --- -----
     eH_0                 0.000000e+00    1         1  ON     0
     eH_1                 0.000000e+00    1         1  ON     1
     eH_2                 0.000000e+00    1         1  ON     2
     eH_3                 0.000000e+00    1         1  ON     3
     eH_4                 0.000000e+00    1         1  ON     4
     eH_5                 0.000000e+00    1         1  ON     5
     eH_6                 0.000000e+00    1         1  ON     6
     eH_7                 0.000000e+00    1         1  ON     7
     eH_8                 0.000000e+00    1         1  ON     8
     eH_9                 0.000000e+00    1         1  ON     9

    Radial function for element: C
     Number of parameters: 10
     Cusp: 0
     Cutoff radius: 5

     Name                        Value Type Recompute Use Index
     ---- ---------------------------- ---- --------- --- -----
     eC_0                 0.000000e+00    1         1  ON     0
     eC_1                 0.000000e+00    1         1  ON     1
     eC_2                 0.000000e+00    1         1  ON     2
     eC_3                 0.000000e+00    1         1  ON     3
     eC_4                 0.000000e+00    1         1  ON     4
     eC_5                 0.000000e+00    1         1  ON     5
     eC_6                 0.000000e+00    1         1  ON     6
     eC_7                 0.000000e+00    1         1  ON     7
     eC_8                 0.000000e+00    1         1  ON     8
     eC_9                 0.000000e+00    1         1  ON     9


   Jastrow
   -------
    Name: J2   Type: Two-Body   Function: bspline

    Radial function for species: u - u
     Number of parameters: 10
     Cusp: -0.25
     Cutoff radius: 5

     Name                        Value Type Recompute Use Index
     ---- ---------------------------- ---- --------- --- -----
     uu_0                 0.000000e+00    1         1  ON     0
     uu_1                 0.000000e+00    1         1  ON     1
     uu_2                 0.000000e+00    1         1  ON     2
     uu_3                 0.000000e+00    1         1  ON     3
     uu_4                 0.000000e+00    1         1  ON     4
     uu_5                 0.000000e+00    1         1  ON     5
     uu_6                 0.000000e+00    1         1  ON     6
     uu_7                 0.000000e+00    1         1  ON     7
     uu_8                 0.000000e+00    1         1  ON     8
     uu_9                 0.000000e+00    1         1  ON     9

    Radial function for species: u - d
     Number of parameters: 10
     Cusp: -0.5
     Cutoff radius: 5

     Name                        Value Type Recompute Use Index
     ---- ---------------------------- ---- --------- --- -----
     ud_0                 0.000000e+00    1         1  ON     0
     ud_1                 0.000000e+00    1         1  ON     1
     ud_2                 0.000000e+00    1         1  ON     2
     ud_3                 0.000000e+00    1         1  ON     3
     ud_4                 0.000000e+00    1         1  ON     4
     ud_5                 0.000000e+00    1         1  ON     5
     ud_6                 0.000000e+00    1         1  ON     6
     ud_7                 0.000000e+00    1         1  ON     7
     ud_8                 0.000000e+00    1         1  ON     8
     ud_9                 0.000000e+00    1         1  ON     9

  QMCHamiltonian::addOperator Kinetic to H, physical Hamiltonian 
  QMCHamiltonian::addOperator ElecElec to H, physical Hamiltonian 
QMCHamiltonian::addOperatorType added type coulomb named ElecElec
  QMCHamiltonian::addOperator IonIon to H, physical Hamiltonian 
QMCHamiltonian::addOperatorType added type coulomb named IonIon

  ECPotential builder for pseudopotential 

  Adding pseudopotential for H
   Linear grid  ri=0 rf=10 npts = 10001
    ECPComponentBuilder::buildSemiLocalAndLocal 
    Assuming Hartree unit
   Number of angular momentum channels 2
   Maximum angular momentum channel 1
   Creating a Linear Grid Rmax=1e-10
  Using global grid with delta = 0.001
   Making L=1 a local potential with a radial cutoff of 9.999
    Non-local pseudopotential parameters
    Maximum angular mementum = 0
    Number of non-local channels = 1
       l(0)=0
    Cutoff radius = 0.001
    Spherical grids and weights: 
                        1                 0                 0       0.08333333333
                       -1   1.224646799e-16                 0       0.08333333333
             0.4472135955       0.894427191                 0       0.08333333333
            -0.4472135955      0.7236067977      0.5257311121       0.08333333333
             0.4472135955      0.2763932023      0.8506508084       0.08333333333
            -0.4472135955     -0.2763932023      0.8506508084       0.08333333333
             0.4472135955     -0.7236067977      0.5257311121       0.08333333333
            -0.4472135955      -0.894427191   1.095357397e-16       0.08333333333
             0.4472135955     -0.7236067977     -0.5257311121       0.08333333333
            -0.4472135955     -0.2763932023     -0.8506508084       0.08333333333
             0.4472135955      0.2763932023     -0.8506508084       0.08333333333
            -0.4472135955      0.7236067977     -0.5257311121       0.08333333333
    Maximum cutoff radius 0.001

  Adding pseudopotential for C
   Linear grid  ri=0 rf=10 npts = 10001
    ECPComponentBuilder::buildSemiLocalAndLocal 
    Assuming Hartree unit
   Number of angular momentum channels 2
   Maximum angular momentum channel 1
   Creating a Linear Grid Rmax=1.405
  Using global grid with delta = 0.001
   Making L=1 a local potential with a radial cutoff of 9.999
    Non-local pseudopotential parameters
    Maximum angular mementum = 0
    Number of non-local channels = 1
       l(0)=0
    Cutoff radius = 1.405
    Spherical grids and weights: 
                        1                 0                 0       0.08333333333
                       -1   1.224646799e-16                 0       0.08333333333
             0.4472135955       0.894427191                 0       0.08333333333
            -0.4472135955      0.7236067977      0.5257311121       0.08333333333
             0.4472135955      0.2763932023      0.8506508084       0.08333333333
            -0.4472135955     -0.2763932023      0.8506508084       0.08333333333
             0.4472135955     -0.7236067977      0.5257311121       0.08333333333
            -0.4472135955      -0.894427191   1.095357397e-16       0.08333333333
             0.4472135955     -0.7236067977     -0.5257311121       0.08333333333
            -0.4472135955     -0.2763932023     -0.8506508084       0.08333333333
             0.4472135955      0.2763932023     -0.8506508084       0.08333333333
            -0.4472135955      0.7236067977     -0.5257311121       0.08333333333
    Maximum cutoff radius 1.405
  QMCHamiltonian::addOperator LocalECP to H, physical Hamiltonian 

  Using NonLocalECP potential 
    Maximum grid on a sphere for NonLocalECPotential: 12
  QMCHamiltonian::addOperator NonLocalECP to H, physical Hamiltonian 
QMCHamiltonian::addOperatorType added type pseudo named PseudoPot

  QMCHamiltonian::add2WalkerProperty added
    5 to P::PropertyList 
    0 to P::Collectables 
    starting Index of the observables in P::PropertyList = 9
ParticleSetPool::randomize 1 ParticleSet.
<init source="ion0" target="e">
</init>
  Initialization Execution time = 0.7505 secs
=========================================================
 Summary of QMC systems 
=========================================================
ParticleSetPool has: 

  ParticleSet 'e' contains 10 particles :  u(5) d(5)

    u  6.2297086164e-01 -3.2581734894e-01  1.5255257279e+00
    u -5.3229463957e-01 -5.9714502873e-01  1.2126632339e+00
    u -4.8911917115e-01  8.0968966397e-02 -5.0386940135e-01
    u -2.9429879011e-01  4.9065210848e-01 -1.7005626592e+00
    u  2.4611638917e-01  3.8630619483e-01  2.4849976880e+00
    d -4.1563041590e-02 -7.6092073815e-01  8.8129343968e-01
    d  5.3993681869e-01 -5.9119797258e-01  1.0676958611e+00
    d -5.6234804062e-01 -5.7403137871e-01 -1.1385155182e+00
    d -3.3199215984e-01 -5.9087944969e-01 -1.5680271540e+00
    d  4.0819493217e-01 -9.2941092386e-02 -3.8311837241e+00

  Distance table for dissimilar particles (A-B):
    source: ion0  target: e
    Using structure-of-arrays (SoA) data layout
    Distance computations use open boundary conditions in 3D.

  Distance table for similar particles (A-A):
    source/target: e
    Using structure-of-arrays (SoA) data layout
    Distance computations use open boundary conditions in 3D.


  ParticleSet 'ion0' contains 4 particles :  C(2) H(2)

    C  0.0000000000e+00  0.0000000000e+00  1.1362923200e+00
    C  0.0000000000e+00  0.0000000000e+00 -1.1362923200e+00
    H  0.0000000000e+00  0.0000000000e+00  3.1452601600e+00
    H  0.0000000000e+00  0.0000000000e+00 -3.1452601600e+00

  Distance table for similar particles (A-A):
    source/target: ion0
    Using structure-of-arrays (SoA) data layout
    Distance computations use open boundary conditions in 3D.


  Hamiltonian h0
  Kinetic         Kinetic energy
  ElecElec        CoulombAB source=e

  IonIon          CoulombAA source/target ion0

  LocalECP        LocalECPotential: ion0
  NonLocalECP     NonLocalECPotential: ion0

Loop execution max-interations = 3

=========================================================
  Start QMCFixedSampleLinearOptimize
  File Root optJ12.s000 append = no 
=========================================================
  Skip QMCDriver::putQMCInfo 
  Resetting Properties of the walkers 1 x 14
  Adding 1 walkers to 0 existing sets
  Total number of walkers: 4.0000000000e+00
  Total weight: 4.0000000000e+00

=========================================================
  Start VMC
  File Root optJ12.s000 append = no 
=========================================================
Resetting walkers
  Using the current 1 walkers.
  Total number of walkers: 4.0000000000e+00
  Total weight: 4.0000000000e+00
  Resetting Properties of the walkers 1 x 14

<vmc function="put">
  qmc_counter=0  my_counter=0
  time step      = 1.5000000000e+00
  blocks         = 100
  steps          = 20
  substeps       = 2
  current        = 0
  target samples = 2.0000000000e+03
  walkers/mpi    = 1

  stepsbetweensamples = 4
  SpinMoves      = no
<parameter name="blocks" condition="int">100</parameter>
<parameter name="blocks_between_recompute" condition="int">0</parameter>
<parameter name="check_properties" condition="int">100</parameter>
<parameter name="checkproperties" condition="int">100</parameter>
<parameter name="current" condition="int">0</parameter>
<parameter name="dmcwalkersperthread" condition="real">5.0000000000e+02</parameter>
<parameter name="maxcpusecs" condition="real">3.6000000000e+05</parameter>
<parameter name="record_configs" condition="int">0</parameter>
<parameter name="record_walkers" condition="int">4</parameter>
<parameter name="recordconfigs" condition="int">0</parameter>
<parameter name="recordwalkers" condition="int">4</parameter>
<parameter name="rewind" condition="int">0</parameter>
<parameter name="samples" condition="real">2.0000000000e+03</parameter>
<parameter name="samplesperthread" condition="real">5.0000000000e+02</parameter>
<parameter name="spinmass" condition="double">1.0000000000e+00</parameter>
<parameter name="spinmoves" condition="string">no</parameter>
<parameter name="steps" condition="int">20</parameter>
<parameter name="stepsbetweensamples" condition="int">4</parameter>
<parameter name="store_configs" condition="int">0</parameter>
<parameter name="storeconfigs" condition="int">0</parameter>
<parameter name="sub_steps" condition="int">2</parameter>
<parameter name="substeps" condition="int">2</parameter>
<parameter name="tau" condition="au">1.5000000000e+00</parameter>
<parameter name="time_step" condition="au">1.5000000000e+00</parameter>
<parameter name="timestep" condition="au">1.5000000000e+00</parameter>
<parameter name="use_drift" condition="string">yes</parameter>
<parameter name="usedrift" condition="string">yes</parameter>
<parameter name="walkers" condition="int">1</parameter>
<parameter name="warmup_steps" condition="int">0</parameter>
<parameter name="warmupsteps" condition="int">0</parameter>
  DumpConfig==false Nothing (configurations, state) will be saved.
  Walker Samples are dumped every 4 steps.
</vmc>
  Set drift_modifier UNR parameter a = 1.0000000000e+00
  Adding a default LocalEnergyEstimator for the MainEstimator 
 Using QMCCostFunction::QMCCostFunction
  Set drift_modifier UNR parameter a = 1.0000000000e+00
  Adding a default LocalEnergyEstimator for the MainEstimator 
<optimization-report>
<vmc stage="main" blocks="100">
  Initial partition of walkers 0 1 

  Using Particle by Particle moves
  Walker moves with drift
  Total Sample Size   =2000
  Walker distribution on root = 0 1 
  Using Locality Approximation
===== Memory Usage after the buffer registration =====
Available memory on node 0, free + buffers : 92710 MB
Memory footprint by rank 0 on node 0       : 60 MB
==================================================
  Anonymous Buffer size per walker : 20576 Bytes.
MEMORY increase 0 MB VMC::resetRun
====================================================
  SimpleFixedNodeBranch::finalize after a VMC block
    QMC counter        = 0
    time step          = 1.5
    reference energy   = -12.6624
    reference variance = 0.186519
====================================================
  Execution time = 3.3252e+00
</vmc>
<opt stage="setup">
  <log>
   Reading configurations from h5FileRoot optJ12.s000
  QMCCostFunction is created with 1 threads.
  Using Nonlocal PP in Opt: NonLocalECP
   Number of samples loaded to each thread : 500 
  VMC Eavg = -1.2132e+01
  VMC Evar = 2.3611e+00
  Total weights = 2.0000e+03
  Execution time = 3.2265e-01
  </log>
</opt>
<opt stage="main" walkers="2000">
  <log>

*****************************************
Building overlap and Hamiltonian matrices
*****************************************

Among totally 40 optimized parameters, largest LM parameter change : 4.4360e-01 at parameter 30

******************************************************************************
Init Cost =   2.3611e+00    New Cost =   1.0515e+00  Delta Cost =  -1.3096e+00
******************************************************************************

The new set of parameters is valid. Updating the trial wave function!

*****************************************************************************
Applying the update for shift_i =   1.0000e-02     and shift_s =   2.5000e-01
*****************************************************************************
  Execution time = 4.1342e+00
  </log>
  <optVariables href="optJ12.s000.opt.xml">
eC_0                -4.235396e-01 1 1  ON 0
eC_1                -4.310399e-01 1 1  ON 1
eC_2                -3.572232e-01 1 1  ON 2
eC_3                -2.782263e-01 1 1  ON 3
eC_4                -2.003349e-01 1 1  ON 4
eC_5                -1.391600e-01 1 1  ON 5
eC_6                -8.755899e-02 1 1  ON 6
eC_7                -5.262356e-02 1 1  ON 7
eC_8                -2.603635e-02 1 1  ON 8
eC_9                -7.205232e-03 1 1  ON 9
eH_0                -1.537799e-01 1 1  ON 10
eH_1                -1.387394e-01 1 1  ON 11
eH_2                -1.250668e-01 1 1  ON 12
eH_3                -1.049865e-01 1 1  ON 13
eH_4                -1.015518e-01 1 1  ON 14
eH_5                -7.121223e-02 1 1  ON 15
eH_6                -5.484617e-02 1 1  ON 16
eH_7                -4.016390e-02 1 1  ON 17
eH_8                -2.560447e-02 1 1  ON 18
eH_9                -8.820965e-03 1 1  ON 19
uu_0                 1.905318e-01 1 1  ON 20
uu_1                 2.114505e-01 1 1  ON 21
uu_2                 1.534921e-01 1 1  ON 22
uu_3                 1.073143e-01 1 1  ON 23
uu_4                 6.986380e-02 1 1  ON 24
uu_5                 5.123488e-02 1 1  ON 25
uu_6                 3.276554e-02 1 1  ON 26
uu_7                 2.221373e-02 1 1  ON 27
uu_8                 1.634703e-02 1 1  ON 28
uu_9                 9.185868e-03 1 1  ON 29
ud_0                 4.436001e-01 1 1  ON 30
ud_1                 3.080996e-01 1 1  ON 31
ud_2                 1.992507e-01 1 1  ON 32
ud_3                 1.277899e-01 1 1  ON 33
ud_4                 7.878743e-02 1 1  ON 34
ud_5                 4.521777e-02 1 1  ON 35
ud_6                 2.039739e-02 1 1  ON 36
ud_7                 3.001025e-03 1 1  ON 37
ud_8                -6.559789e-03 1 1  ON 38
ud_9                -7.088085e-03 1 1  ON 39
  </optVariables>
   Restore the number of walkers to 1, removing 0 walkers.
</opt>
</optimization-report>
  QMC Execution time = 4.144 secs

=========================================================
  Start QMCFixedSampleLinearOptimize
  File Root optJ12.s001 append = no 
=========================================================
  Skip QMCDriver::putQMCInfo 
  Resetting Properties of the walkers 1 x 14

=========================================================
  Start VMC
  File Root optJ12.s001 append = no 
=========================================================
Using existing walkers 
  Resetting Properties of the walkers 1 x 14

<vmc function="put">
  qmc_counter=1  my_counter=0
  time step      = 1.5
  blocks         = 100
  steps          = 20
  substeps       = 2
  current        = 0
  target samples = 2000
  walkers/mpi    = 1

  stepsbetweensamples = 4
  SpinMoves      = no
<parameter name="blocks" condition="int">100</parameter>
<parameter name="blocks_between_recompute" condition="int">0</parameter>
<parameter name="check_properties" condition="int">100</parameter>
<parameter name="checkproperties" condition="int">100</parameter>
<parameter name="current" condition="int">0</parameter>
<parameter name="dmcwalkersperthread" condition="real">500</parameter>
<parameter name="maxcpusecs" condition="real">3.6e+05</parameter>
<parameter name="record_configs" condition="int">0</parameter>
<parameter name="record_walkers" condition="int">4</parameter>
<parameter name="recordconfigs" condition="int">0</parameter>
<parameter name="recordwalkers" condition="int">4</parameter>
<parameter name="rewind" condition="int">0</parameter>
<parameter name="samples" condition="real">2000</parameter>
<parameter name="samplesperthread" condition="real">500</parameter>
<parameter name="spinmass" condition="double">1</parameter>
<parameter name="spinmoves" condition="string">no</parameter>
<parameter name="steps" condition="int">20</parameter>
<parameter name="stepsbetweensamples" condition="int">4</parameter>
<parameter name="store_configs" condition="int">0</parameter>
<parameter name="storeconfigs" condition="int">0</parameter>
<parameter name="sub_steps" condition="int">2</parameter>
<parameter name="substeps" condition="int">2</parameter>
<parameter name="tau" condition="au">1.5</parameter>
<parameter name="time_step" condition="au">1.5</parameter>
<parameter name="timestep" condition="au">1.5</parameter>
<parameter name="use_drift" condition="string">yes</parameter>
<parameter name="usedrift" condition="string">yes</parameter>
<parameter name="walkers" condition="int">1</parameter>
<parameter name="warmup_steps" condition="int">0</parameter>
<parameter name="warmupsteps" condition="int">0</parameter>
  DumpConfig==false Nothing (configurations, state) will be saved.
  Walker Samples are dumped every 4 steps.
</vmc>
    Restarting, cummulative properties:
      energy     = -12.66
      variance   = 0
      r2accepted = 1e-10
      r2proposed = 1e-10
  Set drift_modifier UNR parameter a = 1
  Adding a default LocalEnergyEstimator for the MainEstimator 
 Using QMCCostFunction::QMCCostFunction
  Set drift_modifier UNR parameter a = 1.0000e+00
<optimization-report>
<vmc stage="main" blocks="100">
  Cannot make clones again. Use existing 1 clones
  Initial partition of walkers 0 1 

  Using Particle by Particle moves
  Walker moves with drift
  Total Sample Size   =2000
  Walker distribution on root = 0 1 
  Using Locality Approximation
===== Memory Usage after the buffer registration =====
Available memory on node 0, free + buffers : 92674 MB
Memory footprint by rank 0 on node 0       : 68 MB
==================================================
  Anonymous Buffer size per walker : 20576 Bytes.
MEMORY increase 0 MB VMC::resetRun
====================================================
  SimpleFixedNodeBranch::finalize after a VMC block
    QMC counter        = 1
    time step          = 1.5
    reference energy   = -12.6305
    reference variance = 0.168844
====================================================
  Execution time = 3.0167e+00
</vmc>
<opt stage="setup">
  <log>
   Reading configurations from h5FileRoot optJ12.s001
  QMCCostFunction is created with 1 threads.
  Using Nonlocal PP in Opt: NonLocalECP
   Number of samples loaded to each thread : 500 
  VMC Eavg = -1.2392e+01
  VMC Evar = 5.2936e-01
  Total weights = 2.0000e+03
  Execution time = 3.2659e-01
  </log>
</opt>
<opt stage="main" walkers="2000">
  <log>

*****************************************
Building overlap and Hamiltonian matrices
*****************************************

Among totally 40 optimized parameters, largest LM parameter change : 3.4929e-01 at parameter 0

******************************************************************************
Init Cost =   5.2936e-01    New Cost =   4.3104e-01  Delta Cost =  -9.8320e-02
******************************************************************************

The new set of parameters is valid. Updating the trial wave function!

*****************************************************************************
Applying the update for shift_i =   1.0000e-02     and shift_s =   6.2500e-02
*****************************************************************************
  Execution time = 3.6727e+00
  </log>
  <optVariables href="optJ12.s001.opt.xml">
eC_0                -7.728338e-01 1 1  ON 0
eC_1                -7.181372e-01 1 1  ON 1
eC_2                -6.198536e-01 1 1  ON 2
eC_3                -4.906330e-01 1 1  ON 3
eC_4                -3.575576e-01 1 1  ON 4
eC_5                -2.395989e-01 1 1  ON 5
eC_6                -1.483319e-01 1 1  ON 6
eC_7                -8.097817e-02 1 1  ON 7
eC_8                -3.974010e-02 1 1  ON 8
eC_9                -1.632102e-02 1 1  ON 9
eH_0                -1.333276e-01 1 1  ON 10
eH_1                -1.250240e-01 1 1  ON 11
eH_2                -1.035678e-01 1 1  ON 12
eH_3                -7.873391e-02 1 1  ON 13
eH_4                -6.403751e-02 1 1  ON 14
eH_5                -3.796589e-02 1 1  ON 15
eH_6                -1.497681e-02 1 1  ON 16
eH_7                -5.438474e-03 1 1  ON 17
eH_8                -6.171042e-04 1 1  ON 18
eH_9                -6.384965e-03 1 1  ON 19
uu_0                 3.461211e-01 1 1  ON 20
uu_1                 3.209798e-01 1 1  ON 21
uu_2                 2.353798e-01 1 1  ON 22
uu_3                 1.669195e-01 1 1  ON 23
uu_4                 1.115791e-01 1 1  ON 24
uu_5                 7.519556e-02 1 1  ON 25
uu_6                 4.818488e-02 1 1  ON 26
uu_7                 3.026127e-02 1 1  ON 27
uu_8                 1.761754e-02 1 1  ON 28
uu_9                 8.108116e-03 1 1  ON 29
ud_0                 6.655422e-01 1 1  ON 30
ud_1                 4.878139e-01 1 1  ON 31
ud_2                 3.482801e-01 1 1  ON 32
ud_3                 2.417812e-01 1 1  ON 33
ud_4                 1.627077e-01 1 1  ON 34
ud_5                 1.066596e-01 1 1  ON 35
ud_6                 6.476189e-02 1 1  ON 36
ud_7                 3.493949e-02 1 1  ON 37
ud_8                 1.497471e-02 1 1  ON 38
ud_9                 2.106197e-03 1 1  ON 39
  </optVariables>
   Restore the number of walkers to 1, removing 0 walkers.
</opt>
</optimization-report>
  QMC Execution time = 3.682 secs

=========================================================
  Start QMCFixedSampleLinearOptimize
  File Root optJ12.s002 append = no 
=========================================================
  Skip QMCDriver::putQMCInfo 
  Resetting Properties of the walkers 1 x 14

=========================================================
  Start VMC
  File Root optJ12.s002 append = no 
=========================================================
Using existing walkers 
  Resetting Properties of the walkers 1 x 14

<vmc function="put">
  qmc_counter=2  my_counter=0
  time step      = 1.5
  blocks         = 100
  steps          = 20
  substeps       = 2
  current        = 0
  target samples = 2000
  walkers/mpi    = 1

  stepsbetweensamples = 4
  SpinMoves      = no
<parameter name="blocks" condition="int">100</parameter>
<parameter name="blocks_between_recompute" condition="int">0</parameter>
<parameter name="check_properties" condition="int">100</parameter>
<parameter name="checkproperties" condition="int">100</parameter>
<parameter name="current" condition="int">0</parameter>
<parameter name="dmcwalkersperthread" condition="real">500</parameter>
<parameter name="maxcpusecs" condition="real">3.6e+05</parameter>
<parameter name="record_configs" condition="int">0</parameter>
<parameter name="record_walkers" condition="int">4</parameter>
<parameter name="recordconfigs" condition="int">0</parameter>
<parameter name="recordwalkers" condition="int">4</parameter>
<parameter name="rewind" condition="int">0</parameter>
<parameter name="samples" condition="real">2000</parameter>
<parameter name="samplesperthread" condition="real">500</parameter>
<parameter name="spinmass" condition="double">1</parameter>
<parameter name="spinmoves" condition="string">no</parameter>
<parameter name="steps" condition="int">20</parameter>
<parameter name="stepsbetweensamples" condition="int">4</parameter>
<parameter name="store_configs" condition="int">0</parameter>
<parameter name="storeconfigs" condition="int">0</parameter>
<parameter name="sub_steps" condition="int">2</parameter>
<parameter name="substeps" condition="int">2</parameter>
<parameter name="tau" condition="au">1.5</parameter>
<parameter name="time_step" condition="au">1.5</parameter>
<parameter name="timestep" condition="au">1.5</parameter>
<parameter name="use_drift" condition="string">yes</parameter>
<parameter name="usedrift" condition="string">yes</parameter>
<parameter name="walkers" condition="int">1</parameter>
<parameter name="warmup_steps" condition="int">0</parameter>
<parameter name="warmupsteps" condition="int">0</parameter>
  DumpConfig==false Nothing (configurations, state) will be saved.
  Walker Samples are dumped every 4 steps.
</vmc>
    Restarting, cummulative properties:
      energy     = -12.65
      variance   = 0
      r2accepted = 1e-10
      r2proposed = 1e-10
  Set drift_modifier UNR parameter a = 1
  Adding a default LocalEnergyEstimator for the MainEstimator 
 Using QMCCostFunction::QMCCostFunction
  Set drift_modifier UNR parameter a = 1.0000e+00
<optimization-report>
<vmc stage="main" blocks="100">
  Cannot make clones again. Use existing 1 clones
  Initial partition of walkers 0 1 

  Using Particle by Particle moves
  Walker moves with drift
  Total Sample Size   =2000
  Walker distribution on root = 0 1 
  Using Locality Approximation
===== Memory Usage after the buffer registration =====
Available memory on node 0, free + buffers : 92683 MB
Memory footprint by rank 0 on node 0       : 70 MB
==================================================
  Anonymous Buffer size per walker : 20576 Bytes.
MEMORY increase 0 MB VMC::resetRun
====================================================
  SimpleFixedNodeBranch::finalize after a VMC block
    QMC counter        = 2
    time step          = 1.5
    reference energy   = -12.2708
    reference variance = 0.0302144
====================================================
  Execution time = 3.0759e+00
</vmc>
<opt stage="setup">
  <log>
   Reading configurations from h5FileRoot optJ12.s002
  QMCCostFunction is created with 1 threads.
  Using Nonlocal PP in Opt: NonLocalECP
   Number of samples loaded to each thread : 500 
  VMC Eavg = -1.2424e+01
  VMC Evar = 9.7959e-01
  Total weights = 2.0000e+03
  Execution time = 3.2316e-01
  </log>
</opt>
<opt stage="main" walkers="2000">
  <log>

*****************************************
Building overlap and Hamiltonian matrices
*****************************************

Among totally 40 optimized parameters, largest LM parameter change : 1.0909e-01 at parameter 0

******************************************************************************
Init Cost =   9.7959e-01    New Cost =   9.5888e-01  Delta Cost =  -2.0714e-02
******************************************************************************

The new set of parameters is valid. Updating the trial wave function!

*****************************************************************************
Applying the update for shift_i =   1.0000e-02     and shift_s =   1.5625e-02
*****************************************************************************
  Execution time = 3.7265e+00
  </log>
  <optVariables href="optJ12.s002.opt.xml">
eC_0                -8.819243e-01 1 1  ON 0
eC_1                -8.222529e-01 1 1  ON 1
eC_2                -7.147125e-01 1 1  ON 2
eC_3                -5.896904e-01 1 1  ON 3
eC_4                -4.460468e-01 1 1  ON 4
eC_5                -3.142970e-01 1 1  ON 5
eC_6                -2.089946e-01 1 1  ON 6
eC_7                -1.245459e-01 1 1  ON 7
eC_8                -5.100606e-02 1 1  ON 8
eC_9                -2.009939e-02 1 1  ON 9
eH_0                -1.817921e-01 1 1  ON 10
eH_1                -1.650669e-01 1 1  ON 11
eH_2                -1.537473e-01 1 1  ON 12
eH_3                -1.344488e-01 1 1  ON 13
eH_4                -1.108849e-01 1 1  ON 14
eH_5                -9.760731e-02 1 1  ON 15
eH_6                -6.083376e-02 1 1  ON 16
eH_7                -2.446723e-02 1 1  ON 17
eH_8                -1.499096e-02 1 1  ON 18
eH_9                -6.660237e-03 1 1  ON 19
uu_0                 4.342397e-01 1 1  ON 20
uu_1                 3.724696e-01 1 1  ON 21
uu_2                 2.702664e-01 1 1  ON 22
uu_3                 1.977838e-01 1 1  ON 23
uu_4                 1.449000e-01 1 1  ON 24
uu_5                 9.927185e-02 1 1  ON 25
uu_6                 6.262174e-02 1 1  ON 26
uu_7                 4.329181e-02 1 1  ON 27
uu_8                 2.593640e-02 1 1  ON 28
uu_9                 1.418288e-02 1 1  ON 29
ud_0                 7.208552e-01 1 1  ON 30
ud_1                 5.293573e-01 1 1  ON 31
ud_2                 3.846065e-01 1 1  ON 32
ud_3                 2.756048e-01 1 1  ON 33
ud_4                 1.899142e-01 1 1  ON 34
ud_5                 1.337136e-01 1 1  ON 35
ud_6                 8.788474e-02 1 1  ON 36
ud_7                 4.826076e-02 1 1  ON 37
ud_8                 2.659761e-02 1 1  ON 38
ud_9                 1.223293e-02 1 1  ON 39
  </optVariables>
   Restore the number of walkers to 1, removing 0 walkers.
</opt>
</optimization-report>
  QMC Execution time = 3.735 secs
Loop execution max-interations = 3
BRANCH resetRun
  Continue with the same input as the previous block.
 SimpleFixedNodeBranch::resetRun detected changes in <parameter>'s 
 BranchMode : 0000001100 0000001100
 iParam (old):                200                 1                 2                 0                 0                 0                 1                 0
 iParam (new):                200                 1                 2                 0                 0                 0                 1                 0
 vParam (old):                1.5               0.1                 1                 1                 1                 1                 1                 1                 1                 0                 0                 1                10                 1                 1                 1                 1
 vParam (new):                1.5               0.1                 1                 1                 1                 1                 1                 1                 1                 0                 0                 1                10                 1                 1                 1                 1

=========================================================
  Start QMCFixedSampleLinearOptimize
  File Root optJ12.s003 append = no 
=========================================================
  Skip QMCDriver::putQMCInfo 
  Resetting Properties of the walkers 1 x 14

=========================================================
  Start VMC
  File Root optJ12.s003 append = no 
=========================================================
Resetting walkers
  Using the current 1 walkers.
  Total number of walkers: 4
  Total weight: 4
  Resetting Properties of the walkers 1 x 14

<vmc function="put">
  qmc_counter=0  my_counter=0
  time step      = 1.5
  blocks         = 100
  steps          = 20
  substeps       = 2
  current        = 0
  target samples = 4000
  walkers/mpi    = 1

  stepsbetweensamples = 2
  SpinMoves      = no
<parameter name="blocks" condition="int">100</parameter>
<parameter name="blocks_between_recompute" condition="int">0</parameter>
<parameter name="check_properties" condition="int">100</parameter>
<parameter name="checkproperties" condition="int">100</parameter>
<parameter name="current" condition="int">0</parameter>
<parameter name="dmcwalkersperthread" condition="real">1000</parameter>
<parameter name="maxcpusecs" condition="real">360000</parameter>
<parameter name="record_configs" condition="int">0</parameter>
<parameter name="record_walkers" condition="int">2</parameter>
<parameter name="recordconfigs" condition="int">0</parameter>
<parameter name="recordwalkers" condition="int">2</parameter>
<parameter name="rewind" condition="int">0</parameter>
<parameter name="samples" condition="real">4000</parameter>
<parameter name="samplesperthread" condition="real">1000</parameter>
<parameter name="spinmass" condition="double">1</parameter>
<parameter name="spinmoves" condition="string">no</parameter>
<parameter name="steps" condition="int">20</parameter>
<parameter name="stepsbetweensamples" condition="int">2</parameter>
<parameter name="store_configs" condition="int">0</parameter>
<parameter name="storeconfigs" condition="int">0</parameter>
<parameter name="sub_steps" condition="int">2</parameter>
<parameter name="substeps" condition="int">2</parameter>
<parameter name="tau" condition="au">1.5</parameter>
<parameter name="time_step" condition="au">1.5</parameter>
<parameter name="timestep" condition="au">1.5</parameter>
<parameter name="use_drift" condition="string">yes</parameter>
<parameter name="usedrift" condition="string">yes</parameter>
<parameter name="walkers" condition="int">1</parameter>
<parameter name="warmup_steps" condition="int">0</parameter>
<parameter name="warmupsteps" condition="int">0</parameter>
  DumpConfig==false Nothing (configurations, state) will be saved.
  Walker Samples are dumped every 2 steps.
</vmc>
    Restarting, cummulative properties:
      energy     = -12.52121169
      variance   = 0
      r2accepted = 1e-10
      r2proposed = 1e-10
  Set drift_modifier UNR parameter a = 1
  Adding a default LocalEnergyEstimator for the MainEstimator 
 Using QMCCostFunction::QMCCostFunction
  Set drift_modifier UNR parameter a = 1.0000000000e+00
<optimization-report>
<vmc stage="main" blocks="100">
  Cannot make clones again. Use existing 1 clones
  Initial partition of walkers 0 1 

  Using Particle by Particle moves
  Walker moves with drift
  Total Sample Size   =4000
  Walker distribution on root = 0 1 
  Using Locality Approximation
===== Memory Usage after the buffer registration =====
Available memory on node 0, free + buffers : 92686 MB
Memory footprint by rank 0 on node 0       : 70 MB
==================================================
  Anonymous Buffer size per walker : 20576 Bytes.
MEMORY increase 0 MB VMC::resetRun
====================================================
  SimpleFixedNodeBranch::finalize after a VMC block
    QMC counter        = 3
    time step          = 1.5
    reference energy   = -12.3932
    reference variance = 0.0250394
====================================================
  Execution time = 2.9568e+00
</vmc>
<opt stage="setup">
  <log>
   Reading configurations from h5FileRoot optJ12.s003
  QMCCostFunction is created with 1 threads.
  Using Nonlocal PP in Opt: NonLocalECP
   Number of samples loaded to each thread : 1000 
  VMC Eavg = -1.2437e+01
  VMC Evar = 7.6653e-01
  Total weights = 4.0000e+03
  Execution time = 6.4610e-01
  </log>
</opt>
<opt stage="main" walkers="4000">
  <log>

*****************************************
Building overlap and Hamiltonian matrices
*****************************************

Among totally 40 optimized parameters, largest LM parameter change : 6.4281e-02 at parameter 0

******************************************************************************
Init Cost =   7.6653e-01    New Cost =   7.3053e-01  Delta Cost =  -3.5998e-02
******************************************************************************

The new set of parameters is valid. Updating the trial wave function!

*****************************************************************************
Applying the update for shift_i =   1.0000e-02     and shift_s =   2.5000e-01
*****************************************************************************
  Execution time = 4.2547e+00
  </log>
  <optVariables href="optJ12.s003.opt.xml">
eC_0                -9.462054e-01 1 1  ON 0
eC_1                -8.780606e-01 1 1  ON 1
eC_2                -7.767792e-01 1 1  ON 2
eC_3                -6.443834e-01 1 1  ON 3
eC_4                -4.980232e-01 1 1  ON 4
eC_5                -3.630036e-01 1 1  ON 5
eC_6                -2.394176e-01 1 1  ON 6
eC_7                -1.446014e-01 1 1  ON 7
eC_8                -6.753147e-02 1 1  ON 8
eC_9                -2.193384e-02 1 1  ON 9
eH_0                -1.660655e-01 1 1  ON 10
eH_1                -1.551460e-01 1 1  ON 11
eH_2                -1.406734e-01 1 1  ON 12
eH_3                -1.224801e-01 1 1  ON 13
eH_4                -1.026927e-01 1 1  ON 14
eH_5                -7.332840e-02 1 1  ON 15
eH_6                -4.515552e-02 1 1  ON 16
eH_7                -2.092434e-02 1 1  ON 17
eH_8                -6.061610e-03 1 1  ON 18
eH_9                -2.381627e-03 1 1  ON 19
uu_0                 4.684087e-01 1 1  ON 20
uu_1                 3.790559e-01 1 1  ON 21
uu_2                 2.812896e-01 1 1  ON 22
uu_3                 2.130276e-01 1 1  ON 23
uu_4                 1.565965e-01 1 1  ON 24
uu_5                 1.108402e-01 1 1  ON 25
uu_6                 7.541920e-02 1 1  ON 26
uu_7                 4.574401e-02 1 1  ON 27
uu_8                 2.586746e-02 1 1  ON 28
uu_9                 1.224941e-02 1 1  ON 29
ud_0                 7.460271e-01 1 1  ON 30
ud_1                 5.480343e-01 1 1  ON 31
ud_2                 4.025943e-01 1 1  ON 32
ud_3                 2.924614e-01 1 1  ON 33
ud_4                 2.092259e-01 1 1  ON 34
ud_5                 1.473563e-01 1 1  ON 35
ud_6                 9.796640e-02 1 1  ON 36
ud_7                 6.169739e-02 1 1  ON 37
ud_8                 3.460317e-02 1 1  ON 38
ud_9                 1.519184e-02 1 1  ON 39
  </optVariables>
   Restore the number of walkers to 1, removing 0 walkers.
</opt>
</optimization-report>
  QMC Execution time = 4.262 secs

=========================================================
  Start QMCFixedSampleLinearOptimize
  File Root optJ12.s004 append = no 
=========================================================
  Skip QMCDriver::putQMCInfo 
  Resetting Properties of the walkers 1 x 14

=========================================================
  Start VMC
  File Root optJ12.s004 append = no 
=========================================================
Using existing walkers 
  Resetting Properties of the walkers 1 x 14

<vmc function="put">
  qmc_counter=1  my_counter=0
  time step      = 1.5
  blocks         = 100
  steps          = 20
  substeps       = 2
  current        = 0
  target samples = 4000
  walkers/mpi    = 1

  stepsbetweensamples = 2
  SpinMoves      = no
<parameter name="blocks" condition="int">100</parameter>
<parameter name="blocks_between_recompute" condition="int">0</parameter>
<parameter name="check_properties" condition="int">100</parameter>
<parameter name="checkproperties" condition="int">100</parameter>
<parameter name="current" condition="int">0</parameter>
<parameter name="dmcwalkersperthread" condition="real">1000</parameter>
<parameter name="maxcpusecs" condition="real">3.6e+05</parameter>
<parameter name="record_configs" condition="int">0</parameter>
<parameter name="record_walkers" condition="int">2</parameter>
<parameter name="recordconfigs" condition="int">0</parameter>
<parameter name="recordwalkers" condition="int">2</parameter>
<parameter name="rewind" condition="int">0</parameter>
<parameter name="samples" condition="real">4000</parameter>
<parameter name="samplesperthread" condition="real">1000</parameter>
<parameter name="spinmass" condition="double">1</parameter>
<parameter name="spinmoves" condition="string">no</parameter>
<parameter name="steps" condition="int">20</parameter>
<parameter name="stepsbetweensamples" condition="int">2</parameter>
<parameter name="store_configs" condition="int">0</parameter>
<parameter name="storeconfigs" condition="int">0</parameter>
<parameter name="sub_steps" condition="int">2</parameter>
<parameter name="substeps" condition="int">2</parameter>
<parameter name="tau" condition="au">1.5</parameter>
<parameter name="time_step" condition="au">1.5</parameter>
<parameter name="timestep" condition="au">1.5</parameter>
<parameter name="use_drift" condition="string">yes</parameter>
<parameter name="usedrift" condition="string">yes</parameter>
<parameter name="walkers" condition="int">1</parameter>
<parameter name="warmup_steps" condition="int">0</parameter>
<parameter name="warmupsteps" condition="int">0</parameter>
  DumpConfig==false Nothing (configurations, state) will be saved.
  Walker Samples are dumped every 2 steps.
</vmc>
    Restarting, cummulative properties:
      energy     = -12.49
      variance   = 0
      r2accepted = 1e-10
      r2proposed = 1e-10
  Set drift_modifier UNR parameter a = 1
  Adding a default LocalEnergyEstimator for the MainEstimator 
 Using QMCCostFunction::QMCCostFunction
  Set drift_modifier UNR parameter a = 1.0000e+00
<optimization-report>
<vmc stage="main" blocks="100">
  Cannot make clones again. Use existing 1 clones
  Initial partition of walkers 0 1 

  Using Particle by Particle moves
  Walker moves with drift
  Total Sample Size   =4000
  Walker distribution on root = 0 1 
  Using Locality Approximation
===== Memory Usage after the buffer registration =====
Available memory on node 0, free + buffers : 92685 MB
Memory footprint by rank 0 on node 0       : 75 MB
==================================================
  Anonymous Buffer size per walker : 20576 Bytes.
MEMORY increase 0 MB VMC::resetRun
====================================================
  SimpleFixedNodeBranch::finalize after a VMC block
    QMC counter        = 4
    time step          = 1.5
    reference energy   = -12.3653
    reference variance = 0.0195534
====================================================
  Execution time = 2.9529e+00
</vmc>
<opt stage="setup">
  <log>
   Reading configurations from h5FileRoot optJ12.s004
  QMCCostFunction is created with 1 threads.
  Using Nonlocal PP in Opt: NonLocalECP
   Number of samples loaded to each thread : 1000 
  VMC Eavg = -1.2444e+01
  VMC Evar = 5.9683e-01
  Total weights = 4.0000e+03
  Execution time = 6.4885e-01
  </log>
</opt>
<opt stage="main" walkers="4000">
  <log>

*****************************************
Building overlap and Hamiltonian matrices
*****************************************

Among totally 40 optimized parameters, largest LM parameter change : 7.2292e-02 at parameter 0

******************************************************************************
Init Cost =   5.9683e-01    New Cost =   5.8019e-01  Delta Cost =  -1.6634e-02
******************************************************************************

The new set of parameters is valid. Updating the trial wave function!

*****************************************************************************
Applying the update for shift_i =   1.0000e-02     and shift_s =   6.2500e-02
*****************************************************************************
  Execution time = 4.2577e+00
  </log>
  <optVariables href="optJ12.s004.opt.xml">
eC_0                -1.018498e+00 1 1  ON 0
eC_1                -9.472835e-01 1 1  ON 1
eC_2                -8.358142e-01 1 1  ON 2
eC_3                -6.922743e-01 1 1  ON 3
eC_4                -5.399588e-01 1 1  ON 4
eC_5                -4.022824e-01 1 1  ON 5
eC_6                -2.776610e-01 1 1  ON 6
eC_7                -1.750155e-01 1 1  ON 7
eC_8                -9.521125e-02 1 1  ON 8
eC_9                -4.015412e-02 1 1  ON 9
eH_0                -2.206022e-01 1 1  ON 10
eH_1                -1.975667e-01 1 1  ON 11
eH_2                -1.804643e-01 1 1  ON 12
eH_3                -1.544306e-01 1 1  ON 13
eH_4                -1.425525e-01 1 1  ON 14
eH_5                -1.155695e-01 1 1  ON 15
eH_6                -8.688593e-02 1 1  ON 16
eH_7                -5.681866e-02 1 1  ON 17
eH_8                -2.864648e-02 1 1  ON 18
eH_9                -1.013568e-02 1 1  ON 19
uu_0                 4.386840e-01 1 1  ON 20
uu_1                 3.917617e-01 1 1  ON 21
uu_2                 3.092492e-01 1 1  ON 22
uu_3                 2.380275e-01 1 1  ON 23
uu_4                 1.776681e-01 1 1  ON 24
uu_5                 1.298242e-01 1 1  ON 25
uu_6                 9.095864e-02 1 1  ON 26
uu_7                 5.858908e-02 1 1  ON 27
uu_8                 3.432047e-02 1 1  ON 28
uu_9                 1.591526e-02 1 1  ON 29
ud_0                 7.500399e-01 1 1  ON 30
ud_1                 5.575929e-01 1 1  ON 31
ud_2                 4.131365e-01 1 1  ON 32
ud_3                 3.058421e-01 1 1  ON 33
ud_4                 2.234152e-01 1 1  ON 34
ud_5                 1.592256e-01 1 1  ON 35
ud_6                 1.090884e-01 1 1  ON 36
ud_7                 7.147651e-02 1 1  ON 37
ud_8                 4.119470e-02 1 1  ON 38
ud_9                 2.099677e-02 1 1  ON 39
  </optVariables>
   Restore the number of walkers to 1, removing 0 walkers.
</opt>
</optimization-report>
  QMC Execution time = 4.265 secs

=========================================================
  Start QMCFixedSampleLinearOptimize
  File Root optJ12.s005 append = no 
=========================================================
  Skip QMCDriver::putQMCInfo 
  Resetting Properties of the walkers 1 x 14

=========================================================
  Start VMC
  File Root optJ12.s005 append = no 
=========================================================
Using existing walkers 
  Resetting Properties of the walkers 1 x 14

<vmc function="put">
  qmc_counter=2  my_counter=0
  time step      = 1.5
  blocks         = 100
  steps          = 20
  substeps       = 2
  current        = 0
  target samples = 4000
  walkers/mpi    = 1

  stepsbetweensamples = 2
  SpinMoves      = no
<parameter name="blocks" condition="int">100</parameter>
<parameter name="blocks_between_recompute" condition="int">0</parameter>
<parameter name="check_properties" condition="int">100</parameter>
<parameter name="checkproperties" condition="int">100</parameter>
<parameter name="current" condition="int">0</parameter>
<parameter name="dmcwalkersperthread" condition="real">1000</parameter>
<parameter name="maxcpusecs" condition="real">3.6e+05</parameter>
<parameter name="record_configs" condition="int">0</parameter>
<parameter name="record_walkers" condition="int">2</parameter>
<parameter name="recordconfigs" condition="int">0</parameter>
<parameter name="recordwalkers" condition="int">2</parameter>
<parameter name="rewind" condition="int">0</parameter>
<parameter name="samples" condition="real">4000</parameter>
<parameter name="samplesperthread" condition="real">1000</parameter>
<parameter name="spinmass" condition="double">1</parameter>
<parameter name="spinmoves" condition="string">no</parameter>
<parameter name="steps" condition="int">20</parameter>
<parameter name="stepsbetweensamples" condition="int">2</parameter>
<parameter name="store_configs" condition="int">0</parameter>
<parameter name="storeconfigs" condition="int">0</parameter>
<parameter name="sub_steps" condition="int">2</parameter>
<parameter name="substeps" condition="int">2</parameter>
<parameter name="tau" condition="au">1.5</parameter>
<parameter name="time_step" condition="au">1.5</parameter>
<parameter name="timestep" condition="au">1.5</parameter>
<parameter name="use_drift" condition="string">yes</parameter>
<parameter name="usedrift" condition="string">yes</parameter>
<parameter name="walkers" condition="int">1</parameter>
<parameter name="warmup_steps" condition="int">0</parameter>
<parameter name="warmupsteps" condition="int">0</parameter>
  DumpConfig==false Nothing (configurations, state) will be saved.
  Walker Samples are dumped every 2 steps.
</vmc>
    Restarting, cummulative properties:
      energy     = -12.46
      variance   = 0
      r2accepted = 1e-10
      r2proposed = 1e-10
  Set drift_modifier UNR parameter a = 1
  Adding a default LocalEnergyEstimator for the MainEstimator 
 Using QMCCostFunction::QMCCostFunction
  Set drift_modifier UNR parameter a = 1.0000e+00
<optimization-report>
<vmc stage="main" blocks="100">
  Cannot make clones again. Use existing 1 clones
  Initial partition of walkers 0 1 

  Using Particle by Particle moves
  Walker moves with drift
  Total Sample Size   =4000
  Walker distribution on root = 0 1 
  Using Locality Approximation
===== Memory Usage after the buffer registration =====
Available memory on node 0, free + buffers : 92685 MB
Memory footprint by rank 0 on node 0       : 77 MB
==================================================
  Anonymous Buffer size per walker : 20576 Bytes.
MEMORY increase 0 MB VMC::resetRun
====================================================
  SimpleFixedNodeBranch::finalize after a VMC block
    QMC counter        = 5
    time step          = 1.5
    reference energy   = -12.4573
    reference variance = 0.0382664
====================================================
  Execution time = 2.9766e+00
</vmc>
<opt stage="setup">
  <log>
   Reading configurations from h5FileRoot optJ12.s005
  QMCCostFunction is created with 1 threads.
  Using Nonlocal PP in Opt: NonLocalECP
   Number of samples loaded to each thread : 1000 
  VMC Eavg = -1.2432e+01
  VMC Evar = 1.0050e+00
  Total weights = 4.0000e+03
  Execution time = 6.4352e-01
  </log>
</opt>
<opt stage="main" walkers="4000">
  <log>

*****************************************
Building overlap and Hamiltonian matrices
*****************************************

Among totally 40 optimized parameters, largest LM parameter change : 5.8311e+01 at parameter 20

******************************************************************************
Init Cost =   1.0050e+00    New Cost =   1.1606e+23  Delta Cost =   1.1606e+23
******************************************************************************

The new set of parameters is not valid. Revert to the old set!

*****************************************************************************
Applying the update for shift_i =   1.0000e-02     and shift_s =   2.5000e-01
*****************************************************************************
  Execution time = 4.2717e+00
  </log>
  <optVariables href="optJ12.s005.opt.xml">
eC_0                -1.018498e+00 1 1  ON 0
eC_1                -9.472835e-01 1 1  ON 1
eC_2                -8.358142e-01 1 1  ON 2
eC_3                -6.922743e-01 1 1  ON 3
eC_4                -5.399588e-01 1 1  ON 4
eC_5                -4.022824e-01 1 1  ON 5
eC_6                -2.776610e-01 1 1  ON 6
eC_7                -1.750155e-01 1 1  ON 7
eC_8                -9.521125e-02 1 1  ON 8
eC_9                -4.015412e-02 1 1  ON 9
eH_0                -2.206022e-01 1 1  ON 10
eH_1                -1.975667e-01 1 1  ON 11
eH_2                -1.804643e-01 1 1  ON 12
eH_3                -1.544306e-01 1 1  ON 13
eH_4                -1.425525e-01 1 1  ON 14
eH_5                -1.155695e-01 1 1  ON 15
eH_6                -8.688593e-02 1 1  ON 16
eH_7                -5.681866e-02 1 1  ON 17
eH_8                -2.864648e-02 1 1  ON 18
eH_9                -1.013568e-02 1 1  ON 19
uu_0                 4.386840e-01 1 1  ON 20
uu_1                 3.917617e-01 1 1  ON 21
uu_2                 3.092492e-01 1 1  ON 22
uu_3                 2.380275e-01 1 1  ON 23
uu_4                 1.776681e-01 1 1  ON 24
uu_5                 1.298242e-01 1 1  ON 25
uu_6                 9.095864e-02 1 1  ON 26
uu_7                 5.858908e-02 1 1  ON 27
uu_8                 3.432047e-02 1 1  ON 28
uu_9                 1.591526e-02 1 1  ON 29
ud_0                 7.500399e-01 1 1  ON 30
ud_1                 5.575929e-01 1 1  ON 31
ud_2                 4.131365e-01 1 1  ON 32
ud_3                 3.058421e-01 1 1  ON 33
ud_4                 2.234152e-01 1 1  ON 34
ud_5                 1.592256e-01 1 1  ON 35
ud_6                 1.090884e-01 1 1  ON 36
ud_7                 7.147651e-02 1 1  ON 37
ud_8                 4.119470e-02 1 1  ON 38
ud_9                 2.099677e-02 1 1  ON 39
  </optVariables>
   Restore the number of walkers to 1, removing 0 walkers.
</opt>
</optimization-report>
  QMC Execution time = 4.28 secs
Loop execution max-interations = 3
BRANCH resetRun
  Continue with the same input as the previous block.
 SimpleFixedNodeBranch::resetRun detected changes in <parameter>'s 
 BranchMode : 0000001100 0000001100
 iParam (old):                200                 1                 5                 0                 0                 0                 1                 0
 iParam (new):                200                 1                 5                 0                 0                 0                 1                 0
 vParam (old):                1.5               0.1                 1                 1                 1                 1                 1                 1                 1                 0                 0                 1                10                 1                 1                 1                 1
 vParam (new):                1.5               0.1                 1                 1                 1                 1                 1                 1                 1                 0                 0                 1                10                 1                 1                 1                 1

=========================================================
  Start QMCFixedSampleLinearOptimize
  File Root optJ12.s006 append = no 
=========================================================
  Skip QMCDriver::putQMCInfo 
  Resetting Properties of the walkers 1 x 14

=========================================================
  Start VMC
  File Root optJ12.s006 append = no 
=========================================================
Resetting walkers
  Using the current 1 walkers.
  Total number of walkers: 4
  Total weight: 4
  Resetting Properties of the walkers 1 x 14

<vmc function="put">
  qmc_counter=0  my_counter=0
  time step      = 1.5
  blocks         = 100
  steps          = 20
  substeps       = 2
  current        = 0
  target samples = 8000
  walkers/mpi    = 1

  stepsbetweensamples = 1
  SpinMoves      = no
<parameter name="blocks" condition="int">100</parameter>
<parameter name="blocks_between_recompute" condition="int">0</parameter>
<parameter name="check_properties" condition="int">100</parameter>
<parameter name="checkproperties" condition="int">100</parameter>
<parameter name="current" condition="int">0</parameter>
<parameter name="dmcwalkersperthread" condition="real">2000</parameter>
<parameter name="maxcpusecs" condition="real">360000</parameter>
<parameter name="record_configs" condition="int">0</parameter>
<parameter name="record_walkers" condition="int">1</parameter>
<parameter name="recordconfigs" condition="int">0</parameter>
<parameter name="recordwalkers" condition="int">1</parameter>
<parameter name="rewind" condition="int">0</parameter>
<parameter name="samples" condition="real">8000</parameter>
<parameter name="samplesperthread" condition="real">2000</parameter>
<parameter name="spinmass" condition="double">1</parameter>
<parameter name="spinmoves" condition="string">no</parameter>
<parameter name="steps" condition="int">20</parameter>
<parameter name="stepsbetweensamples" condition="int">1</parameter>
<parameter name="store_configs" condition="int">0</parameter>
<parameter name="storeconfigs" condition="int">0</parameter>
<parameter name="sub_steps" condition="int">2</parameter>
<parameter name="substeps" condition="int">2</parameter>
<parameter name="tau" condition="au">1.5</parameter>
<parameter name="time_step" condition="au">1.5</parameter>
<parameter name="timestep" condition="au">1.5</parameter>
<parameter name="use_drift" condition="string">yes</parameter>
<parameter name="usedrift" condition="string">yes</parameter>
<parameter name="walkers" condition="int">1</parameter>
<parameter name="warmup_steps" condition="int">0</parameter>
<parameter name="warmupsteps" condition="int">0</parameter>
  DumpConfig==false Nothing (configurations, state) will be saved.
  Walker Samples are dumped every 1 steps.
</vmc>
    Restarting, cummulative properties:
      energy     = -12.46323623
      variance   = 0
      r2accepted = 1e-10
      r2proposed = 1e-10
  Set drift_modifier UNR parameter a = 1
  Adding a default LocalEnergyEstimator for the MainEstimator 
 Using QMCCostFunction::QMCCostFunction
  Set drift_modifier UNR parameter a = 1.0000000000e+00
<optimization-report>
<vmc stage="main" blocks="100">
  Cannot make clones again. Use existing 1 clones
  Initial partition of walkers 0 1 

  Using Particle by Particle moves
  Walker moves with drift
  Total Sample Size   =8000
  Walker distribution on root = 0 1 
  Using Locality Approximation
===== Memory Usage after the buffer registration =====
Available memory on node 0, free + buffers : 92681 MB
Memory footprint by rank 0 on node 0       : 77 MB
==================================================
  Anonymous Buffer size per walker : 20576 Bytes.
MEMORY increase 0 MB VMC::resetRun
====================================================
  SimpleFixedNodeBranch::finalize after a VMC block
    QMC counter        = 6
    time step          = 1.5
    reference energy   = -12.2305
    reference variance = 0.0780138
====================================================
  Execution time = 3.2372e+00
</vmc>
<opt stage="setup">
  <log>
   Reading configurations from h5FileRoot optJ12.s006
  QMCCostFunction is created with 1 threads.
  Using Nonlocal PP in Opt: NonLocalECP
   Number of samples loaded to each thread : 2000 
  VMC Eavg = -1.2417e+01
  VMC Evar = 1.9061e+00
  Total weights = 8.0000e+03
  Execution time = 1.2805e+00
  </log>
</opt>
<opt stage="main" walkers="8000">
  <log>

*****************************************
Building overlap and Hamiltonian matrices
*****************************************

Among totally 40 optimized parameters, largest LM parameter change : 2.8121e-02 at parameter 20

******************************************************************************
Init Cost =  -1.0985e+01    New Cost =  -1.1012e+01  Delta Cost =  -2.6942e-02
******************************************************************************

The new set of parameters is valid. Updating the trial wave function!

*****************************************************************************
Applying the update for shift_i =   1.0000e-02     and shift_s =   2.5000e-01
*****************************************************************************
  Execution time = 5.8089e+00
  </log>
  <optVariables href="optJ12.s006.opt.xml">
eC_0                -9.969871e-01 1 1  ON 0
eC_1                -9.695667e-01 1 1  ON 1
eC_2                -8.589921e-01 1 1  ON 2
eC_3                -7.146340e-01 1 1  ON 3
eC_4                -5.620780e-01 1 1  ON 4
eC_5                -4.243875e-01 1 1  ON 5
eC_6                -3.004475e-01 1 1  ON 6
eC_7                -1.963798e-01 1 1  ON 7
eC_8                -1.046037e-01 1 1  ON 8
eC_9                -4.170005e-02 1 1  ON 9
eH_0                -2.169003e-01 1 1  ON 10
eH_1                -1.880063e-01 1 1  ON 11
eH_2                -1.715619e-01 1 1  ON 12
eH_3                -1.494116e-01 1 1  ON 13
eH_4                -1.410062e-01 1 1  ON 14
eH_5                -1.143560e-01 1 1  ON 15
eH_6                -8.547070e-02 1 1  ON 16
eH_7                -5.915881e-02 1 1  ON 17
eH_8                -3.155399e-02 1 1  ON 18
eH_9                -1.463422e-02 1 1  ON 19
uu_0                 4.668051e-01 1 1  ON 20
uu_1                 3.675153e-01 1 1  ON 21
uu_2                 2.932494e-01 1 1  ON 22
uu_3                 2.260008e-01 1 1  ON 23
uu_4                 1.686334e-01 1 1  ON 24
uu_5                 1.195867e-01 1 1  ON 25
uu_6                 8.131322e-02 1 1  ON 26
uu_7                 5.310097e-02 1 1  ON 27
uu_8                 2.871326e-02 1 1  ON 28
uu_9                 1.257907e-02 1 1  ON 29
ud_0                 7.746501e-01 1 1  ON 30
ud_1                 5.794895e-01 1 1  ON 31
ud_2                 4.351254e-01 1 1  ON 32
ud_3                 3.222672e-01 1 1  ON 33
ud_4                 2.373049e-01 1 1  ON 34
ud_5                 1.707313e-01 1 1  ON 35
ud_6                 1.161727e-01 1 1  ON 36
ud_7                 7.592765e-02 1 1  ON 37
ud_8                 4.422983e-02 1 1  ON 38
ud_9                 2.044282e-02 1 1  ON 39
  </optVariables>
   Restore the number of walkers to 1, removing 0 walkers.
</opt>
</optimization-report>
  QMC Execution time = 5.82 secs

=========================================================
  Start QMCFixedSampleLinearOptimize
  File Root optJ12.s007 append = no 
=========================================================
  Skip QMCDriver::putQMCInfo 
  Resetting Properties of the walkers 1 x 14

=========================================================
  Start VMC
  File Root optJ12.s007 append = no 
=========================================================
Using existing walkers 
  Resetting Properties of the walkers 1 x 14

<vmc function="put">
  qmc_counter=1  my_counter=0
  time step      = 1.5
  blocks         = 100
  steps          = 20
  substeps       = 2
  current        = 0
  target samples = 8000
  walkers/mpi    = 1

  stepsbetweensamples = 1
  SpinMoves      = no
<parameter name="blocks" condition="int">100</parameter>
<parameter name="blocks_between_recompute" condition="int">0</parameter>
<parameter name="check_properties" condition="int">100</parameter>
<parameter name="checkproperties" condition="int">100</parameter>
<parameter name="current" condition="int">0</parameter>
<parameter name="dmcwalkersperthread" condition="real">2000</parameter>
<parameter name="maxcpusecs" condition="real">3.6e+05</parameter>
<parameter name="record_configs" condition="int">0</parameter>
<parameter name="record_walkers" condition="int">1</parameter>
<parameter name="recordconfigs" condition="int">0</parameter>
<parameter name="recordwalkers" condition="int">1</parameter>
<parameter name="rewind" condition="int">0</parameter>
<parameter name="samples" condition="real">8000</parameter>
<parameter name="samplesperthread" condition="real">2000</parameter>
<parameter name="spinmass" condition="double">1</parameter>
<parameter name="spinmoves" condition="string">no</parameter>
<parameter name="steps" condition="int">20</parameter>
<parameter name="stepsbetweensamples" condition="int">1</parameter>
<parameter name="store_configs" condition="int">0</parameter>
<parameter name="storeconfigs" condition="int">0</parameter>
<parameter name="sub_steps" condition="int">2</parameter>
<parameter name="substeps" condition="int">2</parameter>
<parameter name="tau" condition="au">1.5</parameter>
<parameter name="time_step" condition="au">1.5</parameter>
<parameter name="timestep" condition="au">1.5</parameter>
<parameter name="use_drift" condition="string">yes</parameter>
<parameter name="usedrift" condition="string">yes</parameter>
<parameter name="walkers" condition="int">1</parameter>
<parameter name="warmup_steps" condition="int">0</parameter>
<parameter name="warmupsteps" condition="int">0</parameter>
  DumpConfig==false Nothing (configurations, state) will be saved.
  Walker Samples are dumped every 1 steps.
</vmc>
    Restarting, cummulative properties:
      energy     = -12.43
      variance   = 0
      r2accepted = 1e-10
      r2proposed = 1e-10
  Set drift_modifier UNR parameter a = 1
  Adding a default LocalEnergyEstimator for the MainEstimator 
 Using QMCCostFunction::QMCCostFunction
  Set drift_modifier UNR parameter a = 1.0000e+00
<optimization-report>
<vmc stage="main" blocks="100">
  Cannot make clones again. Use existing 1 clones
  Initial partition of walkers 0 1 

  Using Particle by Particle moves
  Walker moves with drift
  Total Sample Size   =8000
  Walker distribution on root = 0 1 
  Using Locality Approximation
===== Memory Usage after the buffer registration =====
Available memory on node 0, free + buffers : 92671 MB
Memory footprint by rank 0 on node 0       : 83 MB
==================================================
  Anonymous Buffer size per walker : 20576 Bytes.
MEMORY increase 0 MB VMC::resetRun
====================================================
  SimpleFixedNodeBranch::finalize after a VMC block
    QMC counter        = 7
    time step          = 1.5
    reference energy   = -11.877
    reference variance = 0.0864015
====================================================
  Execution time = 5.7921e+00
</vmc>
<opt stage="setup">
  <log>
   Reading configurations from h5FileRoot optJ12.s007
  QMCCostFunction is created with 1 threads.
  Using Nonlocal PP in Opt: NonLocalECP
   Number of samples loaded to each thread : 2000 
  VMC Eavg = -1.2416e+01
  VMC Evar = 1.5157e+00
  Total weights = 8.0000e+03
  Execution time = 1.2907e+00
  </log>
</opt>
<opt stage="main" walkers="8000">
  <log>

*****************************************
Building overlap and Hamiltonian matrices
*****************************************

Among totally 40 optimized parameters, largest LM parameter change : 8.1697e-02 at parameter 11

******************************************************************************
Init Cost =  -1.1022e+01    New Cost =  -1.1032e+01  Delta Cost =  -9.7053e-03
******************************************************************************

The new set of parameters is valid. Updating the trial wave function!

*****************************************************************************
Applying the update for shift_i =   1.0000e-02     and shift_s =   6.2500e-02
*****************************************************************************
  Execution time = 8.3882e+00
  </log>
  <optVariables href="optJ12.s007.opt.xml">
eC_0                -9.684608e-01 1 1  ON 0
eC_1                -9.339890e-01 1 1  ON 1
eC_2                -8.179690e-01 1 1  ON 2
eC_3                -6.776178e-01 1 1  ON 3
eC_4                -5.262720e-01 1 1  ON 4
eC_5                -3.986353e-01 1 1  ON 5
eC_6                -2.859172e-01 1 1  ON 6
eC_7                -1.826686e-01 1 1  ON 7
eC_8                -1.001953e-01 1 1  ON 8
eC_9                -4.934488e-02 1 1  ON 9
eH_0                -2.842082e-01 1 1  ON 10
eH_1                -2.697028e-01 1 1  ON 11
eH_2                -2.481306e-01 1 1  ON 12
eH_3                -2.174732e-01 1 1  ON 13
eH_4                -1.911966e-01 1 1  ON 14
eH_5                -1.617446e-01 1 1  ON 15
eH_6                -1.238515e-01 1 1  ON 16
eH_7                -8.828953e-02 1 1  ON 17
eH_8                -5.558612e-02 1 1  ON 18
eH_9                -2.721339e-02 1 1  ON 19
uu_0                 4.597852e-01 1 1  ON 20
uu_1                 3.709388e-01 1 1  ON 21
uu_2                 2.878663e-01 1 1  ON 22
uu_3                 2.162711e-01 1 1  ON 23
uu_4                 1.551077e-01 1 1  ON 24
uu_5                 1.056468e-01 1 1  ON 25
uu_6                 6.768788e-02 1 1  ON 26
uu_7                 3.925051e-02 1 1  ON 27
uu_8                 1.872261e-02 1 1  ON 28
uu_9                 7.078438e-03 1 1  ON 29
ud_0                 7.664032e-01 1 1  ON 30
ud_1                 5.709049e-01 1 1  ON 31
ud_2                 4.258384e-01 1 1  ON 32
ud_3                 3.153327e-01 1 1  ON 33
ud_4                 2.311541e-01 1 1  ON 34
ud_5                 1.647682e-01 1 1  ON 35
ud_6                 1.122021e-01 1 1  ON 36
ud_7                 7.198575e-02 1 1  ON 37
ud_8                 4.185462e-02 1 1  ON 38
ud_9                 2.090769e-02 1 1  ON 39
  </optVariables>
   Restore the number of walkers to 1, removing 0 walkers.
</opt>
</optimization-report>
  QMC Execution time = 8.399 secs

=========================================================
  Start QMCFixedSampleLinearOptimize
  File Root optJ12.s008 append = no 
=========================================================
  Skip QMCDriver::putQMCInfo 
  Resetting Properties of the walkers 1 x 14

=========================================================
  Start VMC
  File Root optJ12.s008 append = no 
=========================================================
Using existing walkers 
  Resetting Properties of the walkers 1 x 14

<vmc function="put">
  qmc_counter=2  my_counter=0
  time step      = 1.5
  blocks         = 100
  steps          = 20
  substeps       = 2
  current        = 0
  target samples = 8000
  walkers/mpi    = 1

  stepsbetweensamples = 1
  SpinMoves      = no
<parameter name="blocks" condition="int">100</parameter>
<parameter name="blocks_between_recompute" condition="int">0</parameter>
<parameter name="check_properties" condition="int">100</parameter>
<parameter name="checkproperties" condition="int">100</parameter>
<parameter name="current" condition="int">0</parameter>
<parameter name="dmcwalkersperthread" condition="real">2000</parameter>
<parameter name="maxcpusecs" condition="real">3.6e+05</parameter>
<parameter name="record_configs" condition="int">0</parameter>
<parameter name="record_walkers" condition="int">1</parameter>
<parameter name="recordconfigs" condition="int">0</parameter>
<parameter name="recordwalkers" condition="int">1</parameter>
<parameter name="rewind" condition="int">0</parameter>
<parameter name="samples" condition="real">8000</parameter>
<parameter name="samplesperthread" condition="real">2000</parameter>
<parameter name="spinmass" condition="double">1</parameter>
<parameter name="spinmoves" condition="string">no</parameter>
<parameter name="steps" condition="int">20</parameter>
<parameter name="stepsbetweensamples" condition="int">1</parameter>
<parameter name="store_configs" condition="int">0</parameter>
<parameter name="storeconfigs" condition="int">0</parameter>
<parameter name="sub_steps" condition="int">2</parameter>
<parameter name="substeps" condition="int">2</parameter>
<parameter name="tau" condition="au">1.5</parameter>
<parameter name="time_step" condition="au">1.5</parameter>
<parameter name="timestep" condition="au">1.5</parameter>
<parameter name="use_drift" condition="string">yes</parameter>
<parameter name="usedrift" condition="string">yes</parameter>
<parameter name="walkers" condition="int">1</parameter>
<parameter name="warmup_steps" condition="int">0</parameter>
<parameter name="warmupsteps" condition="int">0</parameter>
  DumpConfig==false Nothing (configurations, state) will be saved.
  Walker Samples are dumped every 1 steps.
</vmc>
    Restarting, cummulative properties:
      energy     = -12.36
      variance   = 0
      r2accepted = 1e-10
      r2proposed = 1e-10
  Set drift_modifier UNR parameter a = 1
  Adding a default LocalEnergyEstimator for the MainEstimator 
 Using QMCCostFunction::QMCCostFunction
  Set drift_modifier UNR parameter a = 1.0000e+00
<optimization-report>
<vmc stage="main" blocks="100">
  Cannot make clones again. Use existing 1 clones
  Initial partition of walkers 0 1 

  Using Particle by Particle moves
  Walker moves with drift
  Total Sample Size   =8000
  Walker distribution on root = 0 1 
  Using Locality Approximation
===== Memory Usage after the buffer registration =====
Available memory on node 0, free + buffers : 92673 MB
Memory footprint by rank 0 on node 0       : 83 MB
==================================================
  Anonymous Buffer size per walker : 20576 Bytes.
MEMORY increase 0 MB VMC::resetRun
====================================================
  SimpleFixedNodeBranch::finalize after a VMC block
    QMC counter        = 8
    time step          = 1.5
    reference energy   = -12.4625
    reference variance = 0.019184
====================================================
  Execution time = 2.9744e+00
</vmc>
<opt stage="setup">
  <log>
   Reading configurations from h5FileRoot optJ12.s008
  QMCCostFunction is created with 1 threads.
  Using Nonlocal PP in Opt: NonLocalECP
   Number of samples loaded to each thread : 2000 
  VMC Eavg = -1.2420e+01
  VMC Evar = 1.5523e+00
  Total weights = 8.0000e+03
  Execution time = 1.3044e+00
  </log>
</opt>
<opt stage="main" walkers="8000">
  <log>

*****************************************
Building overlap and Hamiltonian matrices
*****************************************

Among totally 40 optimized parameters, largest LM parameter change : 5.1693e+01 at parameter 20

******************************************************************************
Init Cost =  -1.1022e+01    New Cost =   3.2000e+03  Delta Cost =   3.2110e+03
******************************************************************************

The new set of parameters is not valid. Revert to the old set!

*****************************************************************************
Applying the update for shift_i =   1.0000e-02     and shift_s =   2.5000e-01
*****************************************************************************
  Execution time = 5.5901e+00
  </log>
  <optVariables href="optJ12.s008.opt.xml">
eC_0                -9.684608e-01 1 1  ON 0
eC_1                -9.339890e-01 1 1  ON 1
eC_2                -8.179690e-01 1 1  ON 2
eC_3                -6.776178e-01 1 1  ON 3
eC_4                -5.262720e-01 1 1  ON 4
eC_5                -3.986353e-01 1 1  ON 5
eC_6                -2.859172e-01 1 1  ON 6
eC_7                -1.826686e-01 1 1  ON 7
eC_8                -1.001953e-01 1 1  ON 8
eC_9                -4.934488e-02 1 1  ON 9
eH_0                -2.842082e-01 1 1  ON 10
eH_1                -2.697028e-01 1 1  ON 11
eH_2                -2.481306e-01 1 1  ON 12
eH_3                -2.174732e-01 1 1  ON 13
eH_4                -1.911966e-01 1 1  ON 14
eH_5                -1.617446e-01 1 1  ON 15
eH_6                -1.238515e-01 1 1  ON 16
eH_7                -8.828953e-02 1 1  ON 17
eH_8                -5.558612e-02 1 1  ON 18
eH_9                -2.721339e-02 1 1  ON 19
uu_0                 4.597852e-01 1 1  ON 20
uu_1                 3.709388e-01 1 1  ON 21
uu_2                 2.878663e-01 1 1  ON 22
uu_3                 2.162711e-01 1 1  ON 23
uu_4                 1.551077e-01 1 1  ON 24
uu_5                 1.056468e-01 1 1  ON 25
uu_6                 6.768788e-02 1 1  ON 26
uu_7                 3.925051e-02 1 1  ON 27
uu_8                 1.872261e-02 1 1  ON 28
uu_9                 7.078438e-03 1 1  ON 29
ud_0                 7.664032e-01 1 1  ON 30
ud_1                 5.709049e-01 1 1  ON 31
ud_2                 4.258384e-01 1 1  ON 32
ud_3                 3.153327e-01 1 1  ON 33
ud_4                 2.311541e-01 1 1  ON 34
ud_5                 1.647682e-01 1 1  ON 35
ud_6                 1.122021e-01 1 1  ON 36
ud_7                 7.198575e-02 1 1  ON 37
ud_8                 4.185462e-02 1 1  ON 38
ud_9                 2.090769e-02 1 1  ON 39
  </optVariables>
   Restore the number of walkers to 1, removing 0 walkers.
</opt>
</optimization-report>
  QMC Execution time = 5.605 secs
  Total Execution time = 44.36 secs

=========================================================
  A new xml input file : optJ12.s008.cont.xml
