/global/u2/h/haihan/Research/BeH2/instability/ccECP_T_multi/opt
  Input file(s): opt.xml 

=====================================================
                    QMCPACK 3.8.9

       (c) Copyright 2003-  QMCPACK developers

                    Please cite:
 J. Kim et al. J. Phys. Cond. Mat. 30 195901 (2018)
      https://doi.org/10.1088/1361-648X/aab9c3

  Git branch: HEAD
  Last git commit: a5c74d4327e4ba84c097fd904ce2b696bf2735ae-dirty
  Last git commit date: Tue Feb 11 10:57:26 2020 +0800
  Last git commit subject: Merge pull request #2299 from QMCPACK/rc_390
=====================================================
  Global options 

  Total number of MPI ranks = 1088
  Number of MPI groups      = 1
  MPI group ID              = 0
  Number of ranks in group  = 1088
  MPI ranks per node        = 68
  OMP 1st level threads     = 1
  OMP nested threading disabled or only 1 thread on the 2nd level

  Precision used in this calculation, see definitions in the manual:
  Base precision      = double
  Full precision      = double

  Structure-of-arrays (SoA) optimization enabled

  Input XML = opt.xml

  Project = opt
  date    = 2021-07-28 13:27:24 PDT
  host    = nid02517

 Random Number
 -------------
  Offset for the random number seeds based on time: 428

  Range of prime numbers to use as seeds over processors and threads = 2999-12713


 Particle Set 
 ------------
  Name: ion0
  All the species have the same mass 1
  Particle set size: 3

 Particle Set 
 ------------
  Name: e
  All the species have the same mass 1
  Particle set size: 4

 Wavefunction setup: 
 ------------------- 
  Name: psi0
  LCAO: SoaAtomicBasisSet<MultiQuintic,0>
Reading BasisSet from HDF5 file:cisd_4.orbs.h5
<input node="atomicBasisSet" name="Gaussian" expandYlm="Gamess" angular="cartesian" elementType="Be" normalized="no" type="Numerical" expM="0" />
  AO BasisSet for Be
   Angular momentum expanded in cartesian functions x^lx y^ly z^lz according to Gamess
   Grid is created by the input paremters in h5
    Using log grid ri = 1e-06 rf = 100 npts = 1001
   R(n,l,m,s) 0 0 0 0
   R(n,l,m,s) 1 1 0 0
   R(n,l,m,s) 2 0 0 0
   R(n,l,m,s) 3 0 0 0
   R(n,l,m,s) 4 0 0 0
   R(n,l,m,s) 5 1 0 0
   R(n,l,m,s) 6 1 0 0
   R(n,l,m,s) 7 1 0 0
   R(n,l,m,s) 8 2 0 0
   R(n,l,m,s) 9 2 0 0
   R(n,l,m,s) 10 2 0 0
   R(n,l,m,s) 11 3 0 0
   R(n,l,m,s) 12 3 0 0
Expanding Ylm (angular function) according to Gamess using cartesian gaussians
Adding 1 cartesian gaussian orbitals for l= 0
Adding 3 cartesian gaussian orbitals for l= 1
Adding 1 cartesian gaussian orbitals for l= 0
Adding 1 cartesian gaussian orbitals for l= 0
Adding 1 cartesian gaussian orbitals for l= 0
Adding 3 cartesian gaussian orbitals for l= 1
Adding 3 cartesian gaussian orbitals for l= 1
Adding 3 cartesian gaussian orbitals for l= 1
Adding 6 cartesian gaussian orbitals for l= 2
Adding 6 cartesian gaussian orbitals for l= 2
Adding 6 cartesian gaussian orbitals for l= 2
Adding 10 cartesian gaussian orbitals for l= 3
Adding 10 cartesian gaussian orbitals for l= 3
  Setting cutoff radius 2.26969e+11

   Maximum Angular Momentum  = 3
   Number of Radial functors = 13
   Basis size                = 54

<input node="atomicBasisSet" name="Gaussian" expandYlm="Gamess" angular="cartesian" elementType="H" normalized="no" type="Numerical" expM="0" />
  AO BasisSet for H
   Angular momentum expanded in cartesian functions x^lx y^ly z^lz according to Gamess
   Grid is created by the input paremters in h5
    Using log grid ri = 1e-06 rf = 100 npts = 1001
   R(n,l,m,s) 0 0 0 0
   R(n,l,m,s) 1 0 0 0
   R(n,l,m,s) 2 0 0 0
   R(n,l,m,s) 3 0 0 0
   R(n,l,m,s) 4 1 0 0
   R(n,l,m,s) 5 1 0 0
   R(n,l,m,s) 6 1 0 0
   R(n,l,m,s) 7 2 0 0
   R(n,l,m,s) 8 2 0 0
Expanding Ylm (angular function) according to Gamess using cartesian gaussians
Adding 1 cartesian gaussian orbitals for l= 0
Adding 1 cartesian gaussian orbitals for l= 0
Adding 1 cartesian gaussian orbitals for l= 0
Adding 1 cartesian gaussian orbitals for l= 0
Adding 3 cartesian gaussian orbitals for l= 1
Adding 3 cartesian gaussian orbitals for l= 1
Adding 3 cartesian gaussian orbitals for l= 1
Adding 6 cartesian gaussian orbitals for l= 2
Adding 6 cartesian gaussian orbitals for l= 2
  Setting cutoff radius 1.28045e+08

   Maximum Angular Momentum  = 2
   Number of Radial functors = 9
   Basis size                = 25

  Created SPOSet builder named 'LCAOBSet' of type molecularorbital
Creating SPOSet in SlaterDetBuilder::put(xmlNodePtr cur).
spo_name = spo-up
  Building SPOSet 'spo-up' with 'LCAOBSet' basis set.
Creating SPOSet in SlaterDetBuilder::put(xmlNodePtr cur).
spo_name = spo-dn
  Building SPOSet 'spo-dn' with 'LCAOBSet' basis set.
Using Bryan's algorithm for MultiSlaterDeterminant expansion. 
Creating base determinant (up) for MSD expansion. 
Creating base determinant (down) for MSD expansion. 
Found determinant list. 
Reading CSFs.
Found 347 terms in the MSD expansion.
Norm of ci vector (sum of ci^2): 1
Norm of qchem ci vector (sum of qchem_ci^2): 1
Found 48 unique up determinants.
Found 48 unique down determinants.
Number of terms in pairs array: 32
Number of terms in pairs array: 32
CI coefficients are not optimizable. 
  Added a fermionic WaveFunctionComponent SlaterDet

   Jastrow
   -------
    Name: J2   Type: Two-Body   Function: Bspline

    Radial function for species: u - u
     Number of parameters: 10
     Cusp: -0.25
     Cutoff radius: 10

     Name                        Value Type Recompute Use Index
     ---- ---------------------------- ---- --------- --- -----
     uu_0                 0.000000e+00    1         1  ON     0
     uu_1                 0.000000e+00    1         1  ON     1
     uu_2                 0.000000e+00    1         1  ON     2
     uu_3                 0.000000e+00    1         1  ON     3
     uu_4                 0.000000e+00    1         1  ON     4
     uu_5                 0.000000e+00    1         1  ON     5
     uu_6                 0.000000e+00    1         1  ON     6
     uu_7                 0.000000e+00    1         1  ON     7
     uu_8                 0.000000e+00    1         1  ON     8
     uu_9                 0.000000e+00    1         1  ON     9

    Radial function for species: u - d
     Number of parameters: 10
     Cusp: -0.5
     Cutoff radius: 10

     Name                        Value Type Recompute Use Index
     ---- ---------------------------- ---- --------- --- -----
     ud_0                 0.000000e+00    1         1  ON     0
     ud_1                 0.000000e+00    1         1  ON     1
     ud_2                 0.000000e+00    1         1  ON     2
     ud_3                 0.000000e+00    1         1  ON     3
     ud_4                 0.000000e+00    1         1  ON     4
     ud_5                 0.000000e+00    1         1  ON     5
     ud_6                 0.000000e+00    1         1  ON     6
     ud_7                 0.000000e+00    1         1  ON     7
     ud_8                 0.000000e+00    1         1  ON     8
     ud_9                 0.000000e+00    1         1  ON     9


   Jastrow
   -------
    Name: J1   Type: One-Body   Function: Bspline

    Radial function for element: Be
     Number of parameters: 10
     Cusp: 0
     Cutoff radius: 10

      Name                        Value Type Recompute Use Index
     ----- ---------------------------- ---- --------- --- -----
     eBe_0                 0.000000e+00    1         1  ON     0
     eBe_1                 0.000000e+00    1         1  ON     1
     eBe_2                 0.000000e+00    1         1  ON     2
     eBe_3                 0.000000e+00    1         1  ON     3
     eBe_4                 0.000000e+00    1         1  ON     4
     eBe_5                 0.000000e+00    1         1  ON     5
     eBe_6                 0.000000e+00    1         1  ON     6
     eBe_7                 0.000000e+00    1         1  ON     7
     eBe_8                 0.000000e+00    1         1  ON     8
     eBe_9                 0.000000e+00    1         1  ON     9

    Radial function for element: H
     Number of parameters: 10
     Cusp: 0
     Cutoff radius: 10

     Name                        Value Type Recompute Use Index
     ---- ---------------------------- ---- --------- --- -----
     eH_0                 0.000000e+00    1         1  ON     0
     eH_1                 0.000000e+00    1         1  ON     1
     eH_2                 0.000000e+00    1         1  ON     2
     eH_3                 0.000000e+00    1         1  ON     3
     eH_4                 0.000000e+00    1         1  ON     4
     eH_5                 0.000000e+00    1         1  ON     5
     eH_6                 0.000000e+00    1         1  ON     6
     eH_7                 0.000000e+00    1         1  ON     7
     eH_8                 0.000000e+00    1         1  ON     8
     eH_9                 0.000000e+00    1         1  ON     9


   Jastrow
   -------
    Name: J3   Type: eeI   Function: polynomial

     Ion: Be   electron-electron: u - u
      Number of parameters for e-e: 3, for e-I: 3
      Cutoff radius: 5

Expected 26 parameters, but found 0 in PolynomialFunctor3D.
         Name                        Value Type Recompute Use Index
      ------- ---------------------------- ---- --------- --- -----
       uuBe_0                 0.000000e+00    1         1  ON     0
       uuBe_1                 0.000000e+00    1         1  ON     1
       uuBe_2                 0.000000e+00    1         1  ON     2
       uuBe_3                 0.000000e+00    1         1  ON     3
       uuBe_4                 0.000000e+00    1         1  ON     4
       uuBe_5                 0.000000e+00    1         1  ON     5
       uuBe_6                 0.000000e+00    1         1  ON     6
       uuBe_7                 0.000000e+00    1         1  ON     7
       uuBe_8                 0.000000e+00    1         1  ON     8
       uuBe_9                 0.000000e+00    1         1  ON     9
      uuBe_10                 0.000000e+00    1         1  ON    10
      uuBe_11                 0.000000e+00    1         1  ON    11
      uuBe_12                 0.000000e+00    1         1  ON    12
      uuBe_13                 0.000000e+00    1         1  ON    13
      uuBe_14                 0.000000e+00    1         1  ON    14
      uuBe_15                 0.000000e+00    1         1  ON    15
      uuBe_16                 0.000000e+00    1         1  ON    16
      uuBe_17                 0.000000e+00    1         1  ON    17
      uuBe_18                 0.000000e+00    1         1  ON    18
      uuBe_19                 0.000000e+00    1         1  ON    19
      uuBe_20                 0.000000e+00    1         1  ON    20
      uuBe_21                 0.000000e+00    1         1  ON    21
      uuBe_22                 0.000000e+00    1         1  ON    22
      uuBe_23                 0.000000e+00    1         1  ON    23
      uuBe_24                 0.000000e+00    1         1  ON    24
      uuBe_25                 0.000000e+00    1         1  ON    25

     Ion: Be   electron-electron: u - d
      Number of parameters for e-e: 3, for e-I: 3
      Cutoff radius: 5

Expected 26 parameters, but found 0 in PolynomialFunctor3D.
         Name                        Value Type Recompute Use Index
      ------- ---------------------------- ---- --------- --- -----
       udBe_0                 0.000000e+00    1         1  ON     0
       udBe_1                 0.000000e+00    1         1  ON     1
       udBe_2                 0.000000e+00    1         1  ON     2
       udBe_3                 0.000000e+00    1         1  ON     3
       udBe_4                 0.000000e+00    1         1  ON     4
       udBe_5                 0.000000e+00    1         1  ON     5
       udBe_6                 0.000000e+00    1         1  ON     6
       udBe_7                 0.000000e+00    1         1  ON     7
       udBe_8                 0.000000e+00    1         1  ON     8
       udBe_9                 0.000000e+00    1         1  ON     9
      udBe_10                 0.000000e+00    1         1  ON    10
      udBe_11                 0.000000e+00    1         1  ON    11
      udBe_12                 0.000000e+00    1         1  ON    12
      udBe_13                 0.000000e+00    1         1  ON    13
      udBe_14                 0.000000e+00    1         1  ON    14
      udBe_15                 0.000000e+00    1         1  ON    15
      udBe_16                 0.000000e+00    1         1  ON    16
      udBe_17                 0.000000e+00    1         1  ON    17
      udBe_18                 0.000000e+00    1         1  ON    18
      udBe_19                 0.000000e+00    1         1  ON    19
      udBe_20                 0.000000e+00    1         1  ON    20
      udBe_21                 0.000000e+00    1         1  ON    21
      udBe_22                 0.000000e+00    1         1  ON    22
      udBe_23                 0.000000e+00    1         1  ON    23
      udBe_24                 0.000000e+00    1         1  ON    24
      udBe_25                 0.000000e+00    1         1  ON    25

     Ion: H   electron-electron: u - u
      Number of parameters for e-e: 3, for e-I: 3
      Cutoff radius: 5

Expected 26 parameters, but found 0 in PolynomialFunctor3D.
        Name                        Value Type Recompute Use Index
      ------ ---------------------------- ---- --------- --- -----
       uuH_0                 0.000000e+00    1         1  ON     0
       uuH_1                 0.000000e+00    1         1  ON     1
       uuH_2                 0.000000e+00    1         1  ON     2
       uuH_3                 0.000000e+00    1         1  ON     3
       uuH_4                 0.000000e+00    1         1  ON     4
       uuH_5                 0.000000e+00    1         1  ON     5
       uuH_6                 0.000000e+00    1         1  ON     6
       uuH_7                 0.000000e+00    1         1  ON     7
       uuH_8                 0.000000e+00    1         1  ON     8
       uuH_9                 0.000000e+00    1         1  ON     9
      uuH_10                 0.000000e+00    1         1  ON    10
      uuH_11                 0.000000e+00    1         1  ON    11
      uuH_12                 0.000000e+00    1         1  ON    12
      uuH_13                 0.000000e+00    1         1  ON    13
      uuH_14                 0.000000e+00    1         1  ON    14
      uuH_15                 0.000000e+00    1         1  ON    15
      uuH_16                 0.000000e+00    1         1  ON    16
      uuH_17                 0.000000e+00    1         1  ON    17
      uuH_18                 0.000000e+00    1         1  ON    18
      uuH_19                 0.000000e+00    1         1  ON    19
      uuH_20                 0.000000e+00    1         1  ON    20
      uuH_21                 0.000000e+00    1         1  ON    21
      uuH_22                 0.000000e+00    1         1  ON    22
      uuH_23                 0.000000e+00    1         1  ON    23
      uuH_24                 0.000000e+00    1         1  ON    24
      uuH_25                 0.000000e+00    1         1  ON    25

     Ion: H   electron-electron: u - d
      Number of parameters for e-e: 3, for e-I: 3
      Cutoff radius: 5

Expected 26 parameters, but found 0 in PolynomialFunctor3D.
        Name                        Value Type Recompute Use Index
      ------ ---------------------------- ---- --------- --- -----
       udH_0                 0.000000e+00    1         1  ON     0
       udH_1                 0.000000e+00    1         1  ON     1
       udH_2                 0.000000e+00    1         1  ON     2
       udH_3                 0.000000e+00    1         1  ON     3
       udH_4                 0.000000e+00    1         1  ON     4
       udH_5                 0.000000e+00    1         1  ON     5
       udH_6                 0.000000e+00    1         1  ON     6
       udH_7                 0.000000e+00    1         1  ON     7
       udH_8                 0.000000e+00    1         1  ON     8
       udH_9                 0.000000e+00    1         1  ON     9
      udH_10                 0.000000e+00    1         1  ON    10
      udH_11                 0.000000e+00    1         1  ON    11
      udH_12                 0.000000e+00    1         1  ON    12
      udH_13                 0.000000e+00    1         1  ON    13
      udH_14                 0.000000e+00    1         1  ON    14
      udH_15                 0.000000e+00    1         1  ON    15
      udH_16                 0.000000e+00    1         1  ON    16
      udH_17                 0.000000e+00    1         1  ON    17
      udH_18                 0.000000e+00    1         1  ON    18
      udH_19                 0.000000e+00    1         1  ON    19
      udH_20                 0.000000e+00    1         1  ON    20
      udH_21                 0.000000e+00    1         1  ON    21
      udH_22                 0.000000e+00    1         1  ON    22
      udH_23                 0.000000e+00    1         1  ON    23
      udH_24                 0.000000e+00    1         1  ON    24
      udH_25                 0.000000e+00    1         1  ON    25

  QMCHamiltonian::addOperator Kinetic to H, physical Hamiltonian 
  QMCHamiltonian::addOperator ElecElec to H, physical Hamiltonian 
QMCHamiltonian::addOperatorType added type coulomb named ElecElec

  ECPotential builder for pseudopotential 

  Adding pseudopotential for Be
   Linear grid  ri=0 rf=10 npts = 10001
    ECPComponentBuilder::buildSemiLocalAndLocal 
    Assuming Hartree unit
   Number of angular momentum channels 2
   Maximum angular momentum channel 1
   Creating a Linear Grid Rmax=2.37
  Using global grid with delta = 0.001
   Making L=1 a local potential with a radial cutoff of 9.999
    Non-local pseudopotential parameters
    Maximum angular mementum = 0
    Number of non-local channels = 1
       l(0)=0
    Cutoff radius = 2.37
    Spherical grids and weights: 
                        1                 0                 0       0.08333333333
                       -1   1.224646799e-16                 0       0.08333333333
             0.4472135955       0.894427191                 0       0.08333333333
            -0.4472135955      0.7236067977      0.5257311121       0.08333333333
             0.4472135955      0.2763932023      0.8506508084       0.08333333333
            -0.4472135955     -0.2763932023      0.8506508084       0.08333333333
             0.4472135955     -0.7236067977      0.5257311121       0.08333333333
            -0.4472135955      -0.894427191   1.095357397e-16       0.08333333333
             0.4472135955     -0.7236067977     -0.5257311121       0.08333333333
            -0.4472135955     -0.2763932023     -0.8506508084       0.08333333333
             0.4472135955      0.2763932023     -0.8506508084       0.08333333333
            -0.4472135955      0.7236067977     -0.5257311121       0.08333333333
    Maximum cutoff radius 2.37

  Adding pseudopotential for H
   Linear grid  ri=0 rf=10 npts = 10001
    ECPComponentBuilder::buildSemiLocalAndLocal 
    Assuming Hartree unit
   Number of angular momentum channels 2
   Maximum angular momentum channel 1
   Creating a Linear Grid Rmax=1e-10
  Using global grid with delta = 0.001
   Making L=1 a local potential with a radial cutoff of 9.999
    Non-local pseudopotential parameters
    Maximum angular mementum = 0
    Number of non-local channels = 1
       l(0)=0
    Cutoff radius = 0.001
    Spherical grids and weights: 
                        1                 0                 0       0.08333333333
                       -1   1.224646799e-16                 0       0.08333333333
             0.4472135955       0.894427191                 0       0.08333333333
            -0.4472135955      0.7236067977      0.5257311121       0.08333333333
             0.4472135955      0.2763932023      0.8506508084       0.08333333333
            -0.4472135955     -0.2763932023      0.8506508084       0.08333333333
             0.4472135955     -0.7236067977      0.5257311121       0.08333333333
            -0.4472135955      -0.894427191   1.095357397e-16       0.08333333333
             0.4472135955     -0.7236067977     -0.5257311121       0.08333333333
            -0.4472135955     -0.2763932023     -0.8506508084       0.08333333333
             0.4472135955      0.2763932023     -0.8506508084       0.08333333333
            -0.4472135955      0.7236067977     -0.5257311121       0.08333333333
    Maximum cutoff radius 0.001
  QMCHamiltonian::addOperator LocalECP to H, physical Hamiltonian 

  Using NonLocalECP potential 
    Maximum grid on a sphere for NonLocalECPotential: 12
  QMCHamiltonian::addOperator NonLocalECP to H, physical Hamiltonian 
QMCHamiltonian::addOperatorType added type pseudo named ELEMENT-ECP
  QMCHamiltonian::addOperator IonIon to H, physical Hamiltonian 
QMCHamiltonian::addOperatorType added type coulomb named IonIon

  QMCHamiltonian::add2WalkerProperty added
    5 to P::PropertyList 
    0 to P::Collectables 
    starting Index of the observables in P::PropertyList = 9
<init source="ion0" target="e">
</init>
ParticleSetPool::randomize 1 ParticleSet.
<init source="ion0" target="e">
</init>
  Initialization Execution time = 4.326 secs
=========================================================
 Summary of QMC systems 
=========================================================
ParticleSetPool has: 

  ParticleSet 'e' contains 4 particles :  u(2) d(2)

    u  8.9867952932e-01 -3.2431994803e-01  3.0401405040e-01
    u -6.1980849026e-01 -3.6493785586e-01  3.2050242571e+00
    d  5.1874945725e-01  5.9157695876e-01 -6.2142462972e-01
    d  1.8573287327e-01  8.4205436461e-01 -1.9949852749e+00

  Distance table for dissimilar particles (A-B):
    source: ion0  target: e
    Using structure-of-arrays (SoA) data layout
    Distance computations use open boundary conditions in 3D.

  Distance table for similar particles (A-A):
    source/target: e
    Using structure-of-arrays (SoA) data layout
    Distance computations use open boundary conditions in 3D.


  ParticleSet 'ion0' contains 3 particles :  Be(1) H(2)

    Be  0.0000000000e+00  0.0000000000e+00  0.0000000000e+00
    H  0.0000000000e+00  0.0000000000e+00  2.5065325501e+00
    H  0.0000000000e+00  0.0000000000e+00 -2.5065325501e+00

  Distance table for similar particles (A-A):
    source/target: ion0
    Using structure-of-arrays (SoA) data layout
    Distance computations use open boundary conditions in 3D.


  Hamiltonian h0
  Kinetic         Kinetic energy
  ElecElec        CoulombAB source=e

  LocalECP        LocalECPotential: ion0
  NonLocalECP     NonLocalECPotential: ion0
  IonIon          CoulombAA source/target ion0



=========================================================
  Start VMC
  File Root opt.s000 append = no 
=========================================================
Resetting walkers
  Adding 1 walkers to 0 existing sets
  Total number of walkers: 1.0880000000e+03
  Total weight: 1.0880000000e+03
  Resetting Properties of the walkers 1 x 14

<vmc function="put">
  qmc_counter=0  my_counter=0
  time step      = 1.0000000000e+00
  blocks         = 100
  steps          = 20
  substeps       = 2
  current        = 0
  target samples = 0.0000000000e+00
  walkers/mpi    = 1

  stepsbetweensamples = 2020
  SpinMoves      = no
<parameter name="blocks" condition="int">100</parameter>
<parameter name="blocks_between_recompute" condition="int">0</parameter>
<parameter name="check_properties" condition="int">100</parameter>
<parameter name="checkproperties" condition="int">100</parameter>
<parameter name="current" condition="int">0</parameter>
<parameter name="dmcwalkersperthread" condition="real">0.0000000000e+00</parameter>
<parameter name="maxcpusecs" condition="real">3.6000000000e+05</parameter>
<parameter name="record_configs" condition="int">0</parameter>
<parameter name="record_walkers" condition="int">2020</parameter>
<parameter name="recordconfigs" condition="int">0</parameter>
<parameter name="recordwalkers" condition="int">2020</parameter>
<parameter name="rewind" condition="int">0</parameter>
<parameter name="samples" condition="real">0.0000000000e+00</parameter>
<parameter name="samplesperthread" condition="real">0.0000000000e+00</parameter>
<parameter name="spinmass" condition="double">1.0000000000e+00</parameter>
<parameter name="spinmoves" condition="string">no</parameter>
<parameter name="steps" condition="int">20</parameter>
<parameter name="stepsbetweensamples" condition="int">2020</parameter>
<parameter name="store_configs" condition="int">0</parameter>
<parameter name="storeconfigs" condition="int">0</parameter>
<parameter name="sub_steps" condition="int">2</parameter>
<parameter name="substeps" condition="int">2</parameter>
<parameter name="tau" condition="au">1.0000000000e+00</parameter>
<parameter name="time_step" condition="au">1.0000000000e+00</parameter>
<parameter name="timestep" condition="au">1.0000000000e+00</parameter>
<parameter name="use_drift" condition="string">yes</parameter>
<parameter name="usedrift" condition="string">yes</parameter>
<parameter name="walkers" condition="int">1</parameter>
<parameter name="warmup_steps" condition="int">100</parameter>
<parameter name="warmupsteps" condition="int">100</parameter>
  DumpConfig==false Nothing (configurations, state) will be saved.
  Walker Samples are dumped every 2020 steps.
</vmc>
  Set drift_modifier UNR parameter a = 1.0000000000e+00
  Adding a default LocalEnergyEstimator for the MainEstimator 
  Initial partition of walkers 0 1 

  Using Particle by Particle moves
  Walker moves with drift
  Total Sample Size   =0
  Walker distribution on root = 0 1 
  Using Locality Approximation
===== Memory Usage after the buffer registration =====
Available memory on node 0, free + buffers : 88694 MB
Memory footprint by rank 0 on node 0       : 79 MB
==================================================
  Anonymous Buffer size per walker : 13448 Bytes.
MEMORY increase 0 MB VMC::resetRun
====================================================
  SimpleFixedNodeBranch::finalize after a VMC block
    QMC counter        = 0
    time step          = 1
    reference energy   = -2.20597
    reference variance = 0.134937
====================================================
  QMC Execution time = 7.5227e+00 secs
Loop execution max-interations = 10

=========================================================
  Start QMCFixedSampleLinearOptimize
  File Root opt.s001 append = no 
=========================================================
  Skip QMCDriver::putQMCInfo 
  Resetting Properties of the walkers 1 x 14

=========================================================
  Start VMC
  File Root opt.s001 append = no 
=========================================================
Resetting walkers
  Using the current 1 walkers.
  Total number of walkers: 1.0880e+03
  Total weight: 1.0880e+03
  Resetting Properties of the walkers 1 x 14

<vmc function="put">
  qmc_counter=0  my_counter=0
  time step      = 1.5000e+00
  blocks         = 100
  steps          = 20
  substeps       = 2
  current        = 0
  target samples = 3.2000e+05
  walkers/mpi    = 1

  stepsbetweensamples = 6
  SpinMoves      = no
<parameter name="blocks" condition="int">100</parameter>
<parameter name="blocks_between_recompute" condition="int">0</parameter>
<parameter name="check_properties" condition="int">100</parameter>
<parameter name="checkproperties" condition="int">100</parameter>
<parameter name="current" condition="int">0</parameter>
<parameter name="dmcwalkersperthread" condition="real">2.9500e+02</parameter>
<parameter name="maxcpusecs" condition="real">3.6000e+05</parameter>
<parameter name="record_configs" condition="int">0</parameter>
<parameter name="record_walkers" condition="int">6</parameter>
<parameter name="recordconfigs" condition="int">0</parameter>
<parameter name="recordwalkers" condition="int">6</parameter>
<parameter name="rewind" condition="int">0</parameter>
<parameter name="samples" condition="real">3.2000e+05</parameter>
<parameter name="samplesperthread" condition="real">2.9500e+02</parameter>
<parameter name="spinmass" condition="double">1.0000e+00</parameter>
<parameter name="spinmoves" condition="string">no</parameter>
<parameter name="steps" condition="int">20</parameter>
<parameter name="stepsbetweensamples" condition="int">6</parameter>
<parameter name="store_configs" condition="int">0</parameter>
<parameter name="storeconfigs" condition="int">0</parameter>
<parameter name="sub_steps" condition="int">2</parameter>
<parameter name="substeps" condition="int">2</parameter>
<parameter name="tau" condition="au">1.5000e+00</parameter>
<parameter name="time_step" condition="au">1.5000e+00</parameter>
<parameter name="timestep" condition="au">1.5000e+00</parameter>
<parameter name="use_drift" condition="string">yes</parameter>
<parameter name="usedrift" condition="string">yes</parameter>
<parameter name="walkers" condition="int">1</parameter>
<parameter name="warmup_steps" condition="int">0</parameter>
<parameter name="warmupsteps" condition="int">0</parameter>
  DumpConfig==false Nothing (configurations, state) will be saved.
  Walker Samples are dumped every 6 steps.
</vmc>
    Restarting, cummulative properties:
      energy     = -2.2060e+00
      variance   = 0.0000e+00
      r2accepted = 1.0000e-10
      r2proposed = 1.0000e-10
  Set drift_modifier UNR parameter a = 1.0000e+00
  Adding a default LocalEnergyEstimator for the MainEstimator 
 Using QMCCostFunction::QMCCostFunction
  Set drift_modifier UNR parameter a = 1.0000e+00
<optimization-report>
<vmc stage="main" blocks="100">
  Cannot make clones again. Use existing 1 clones
  Initial partition of walkers 0 1 

  Using Particle by Particle moves
  Walker moves with drift
  Total Sample Size   =320960
  Walker distribution on root = 0 1 
  Using Locality Approximation
===== Memory Usage after the buffer registration =====
Available memory on node 0, free + buffers : 88753 MB
Memory footprint by rank 0 on node 0       : 80 MB
==================================================
  Anonymous Buffer size per walker : 13448 Bytes.
MEMORY increase 0 MB VMC::resetRun
====================================================
  SimpleFixedNodeBranch::finalize after a VMC block
    QMC counter        = 1
    time step          = 1.5
    reference energy   = -2.20599
    reference variance = 0.155298
====================================================
  Execution time = 4.4179e+00
</vmc>
<opt stage="setup">
  <log>
   Reading configurations from h5FileRoot opt.s001
  QMCCostFunction is created with 1 threads.
  Using Nonlocal PP in Opt: no
   Number of samples loaded to each thread : 295 
  VMC Eavg = -2.2077e+00
  VMC Evar = 1.3818e-01
  Total weights = 3.2096e+05
  Execution time = 2.5609e-01
  </log>
</opt>
<opt stage="main" walkers="320960">
  <log>

*****************************************
Building overlap and Hamiltonian matrices
*****************************************

Among totally 144 optimized parameters, largest LM parameter change : 2.2917e-01 at parameter 10

******************************************************************************
Init Cost =   1.3818e-01    New Cost =   4.4981e-02  Delta Cost =  -9.3195e-02
******************************************************************************

The new set of parameters is valid. Updating the trial wave function!

*****************************************************************************
Applying the update for shift_i =   1.0000e-02     and shift_s =   2.5000e-01
*****************************************************************************
  Execution time = 5.3806e+00
  </log>
  <optVariables href="opt.s001.opt.xml">
   uu_0                 9.634058e-03 1 1  ON 0
   uu_1                 6.185026e-02 1 1  ON 1
   uu_2                 6.169978e-02 1 1  ON 2
   uu_3                 2.095316e-02 1 1  ON 3
   uu_4                -1.477481e-03 1 1  ON 4
   uu_5                -1.119706e-02 1 1  ON 5
   uu_6                -1.996222e-02 1 1  ON 6
   uu_7                -2.671831e-02 1 1  ON 7
   uu_8                -2.910206e-02 1 1  ON 8
   uu_9                -2.597154e-02 1 1  ON 9
   ud_0                 2.291714e-01 1 1  ON 10
   ud_1                 1.139155e-01 1 1  ON 11
   ud_2                 9.409329e-03 1 1  ON 12
   ud_3                -3.538709e-02 1 1  ON 13
   ud_4                -4.612132e-02 1 1  ON 14
   ud_5                -4.835238e-02 1 1  ON 15
   ud_6                -5.271075e-02 1 1  ON 16
   ud_7                -5.448693e-02 1 1  ON 17
   ud_8                -5.027751e-02 1 1  ON 18
   ud_9                -4.044698e-02 1 1  ON 19
  eBe_0                -4.529751e-02 1 1  ON 20
  eBe_1                -2.209724e-02 1 1  ON 21
  eBe_2                -2.611805e-02 1 1  ON 22
  eBe_3                -6.250737e-03 1 1  ON 23
  eBe_4                 2.017018e-02 1 1  ON 24
  eBe_5                 9.388051e-03 1 1  ON 25
  eBe_6                 1.621818e-02 1 1  ON 26
  eBe_7                 1.734597e-02 1 1  ON 27
  eBe_8                 1.171607e-02 1 1  ON 28
  eBe_9                 5.286852e-03 1 1  ON 29
   eH_0                -6.670452e-02 1 1  ON 30
   eH_1                -3.493194e-02 1 1  ON 31
   eH_2                -1.753831e-02 1 1  ON 32
   eH_3                -9.025436e-03 1 1  ON 33
   eH_4                 9.087617e-04 1 1  ON 34
   eH_5                 7.610555e-03 1 1  ON 35
   eH_6                 8.537555e-03 1 1  ON 36
   eH_7                 1.903816e-02 1 1  ON 37
   eH_8                 1.834475e-02 1 1  ON 38
   eH_9                 2.270408e-02 1 1  ON 39
 uuBe_0                 8.675551e-05 1 1  ON 40
 uuBe_1                -8.928838e-04 1 1  ON 41
 uuBe_2                -6.692962e-03 1 1  ON 42
 uuBe_3                 4.670953e-03 1 1  ON 43
 uuBe_4                 9.440020e-04 1 1  ON 44
 uuBe_5                 7.917647e-04 1 1  ON 45
 uuBe_6                 1.302257e-03 1 1  ON 46
 uuBe_7                 1.466645e-03 1 1  ON 47
 uuBe_8                -1.504452e-04 1 1  ON 48
 uuBe_9                -1.212999e-03 1 1  ON 49
uuBe_10                 1.966608e-04 1 1  ON 50
uuBe_11                -4.101863e-03 1 1  ON 51
uuBe_12                -3.553998e-06 1 1  ON 52
uuBe_13                -2.196742e-03 1 1  ON 53
uuBe_14                 3.695839e-03 1 1  ON 54
uuBe_15                -1.063256e-03 1 1  ON 55
uuBe_16                 4.314553e-03 1 1  ON 56
uuBe_17                 1.725210e-03 1 1  ON 57
uuBe_18                -3.938438e-03 1 1  ON 58
uuBe_19                -1.867079e-04 1 1  ON 59
uuBe_20                 5.397400e-03 1 1  ON 60
uuBe_21                 1.072760e-03 1 1  ON 61
uuBe_22                 8.498227e-04 1 1  ON 62
uuBe_23                -2.351283e-03 1 1  ON 63
uuBe_24                -2.206876e-03 1 1  ON 64
uuBe_25                -5.295793e-05 1 1  ON 65
 udBe_0                -3.794606e-03 1 1  ON 66
 udBe_1                 6.108773e-04 1 1  ON 67
 udBe_2                 1.446541e-03 1 1  ON 68
 udBe_3                 3.756119e-03 1 1  ON 69
 udBe_4                -9.646532e-04 1 1  ON 70
 udBe_5                -1.237599e-03 1 1  ON 71
 udBe_6                 4.705401e-03 1 1  ON 72
 udBe_7                 5.005586e-03 1 1  ON 73
 udBe_8                -4.587721e-03 1 1  ON 74
 udBe_9                 5.870187e-04 1 1  ON 75
udBe_10                 4.554790e-03 1 1  ON 76
udBe_11                -2.347571e-03 1 1  ON 77
udBe_12                 1.066614e-03 1 1  ON 78
udBe_13                -3.626462e-03 1 1  ON 79
udBe_14                 5.300098e-03 1 1  ON 80
udBe_15                -1.760393e-03 1 1  ON 81
udBe_16                -5.550625e-04 1 1  ON 82
udBe_17                 3.362728e-03 1 1  ON 83
udBe_18                -4.294580e-03 1 1  ON 84
udBe_19                -9.241063e-04 1 1  ON 85
udBe_20                -3.408370e-03 1 1  ON 86
udBe_21                -9.732230e-04 1 1  ON 87
udBe_22                 1.878616e-03 1 1  ON 88
udBe_23                 4.378793e-03 1 1  ON 89
udBe_24                -1.983417e-03 1 1  ON 90
udBe_25                -5.065922e-04 1 1  ON 91
  uuH_0                -1.776613e-03 1 1  ON 92
  uuH_1                 1.784312e-03 1 1  ON 93
  uuH_2                -4.525726e-03 1 1  ON 94
  uuH_3                 2.871770e-03 1 1  ON 95
  uuH_4                 3.192099e-03 1 1  ON 96
  uuH_5                 3.621892e-03 1 1  ON 97
  uuH_6                -1.006271e-03 1 1  ON 98
  uuH_7                 2.500025e-04 1 1  ON 99
  uuH_8                 3.920227e-03 1 1  ON 100
  uuH_9                -2.480830e-03 1 1  ON 101
 uuH_10                -3.077595e-04 1 1  ON 102
 uuH_11                 2.235240e-03 1 1  ON 103
 uuH_12                -3.589870e-03 1 1  ON 104
 uuH_13                -1.740452e-03 1 1  ON 105
 uuH_14                -4.680004e-03 1 1  ON 106
 uuH_15                 2.974589e-03 1 1  ON 107
 uuH_16                 8.841121e-04 1 1  ON 108
 uuH_17                 2.331414e-03 1 1  ON 109
 uuH_18                 2.851342e-03 1 1  ON 110
 uuH_19                -1.927658e-03 1 1  ON 111
 uuH_20                 4.492883e-03 1 1  ON 112
 uuH_21                 4.063121e-03 1 1  ON 113
 uuH_22                -2.199227e-03 1 1  ON 114
 uuH_23                 3.899772e-03 1 1  ON 115
 uuH_24                -2.039147e-03 1 1  ON 116
 uuH_25                 2.298434e-03 1 1  ON 117
  udH_0                -2.313267e-03 1 1  ON 118
  udH_1                -9.521539e-04 1 1  ON 119
  udH_2                -7.895253e-04 1 1  ON 120
  udH_3                 1.991611e-03 1 1  ON 121
  udH_4                -3.901923e-04 1 1  ON 122
  udH_5                -3.837457e-05 1 1  ON 123
  udH_6                -1.736423e-03 1 1  ON 124
  udH_7                 9.201156e-03 1 1  ON 125
  udH_8                 8.826463e-04 1 1  ON 126
  udH_9                 2.414788e-03 1 1  ON 127
 udH_10                 2.167397e-03 1 1  ON 128
 udH_11                -6.019243e-03 1 1  ON 129
 udH_12                -1.554944e-03 1 1  ON 130
 udH_13                -3.341441e-03 1 1  ON 131
 udH_14                 7.823385e-03 1 1  ON 132
 udH_15                -1.759280e-03 1 1  ON 133
 udH_16                 1.177549e-03 1 1  ON 134
 udH_17                 6.573356e-03 1 1  ON 135
 udH_18                -9.237280e-03 1 1  ON 136
 udH_19                 4.085154e-03 1 1  ON 137
 udH_20                -2.941819e-03 1 1  ON 138
 udH_21                -2.281307e-04 1 1  ON 139
 udH_22                 5.505218e-04 1 1  ON 140
 udH_23                 6.325102e-03 1 1  ON 141
 udH_24                -2.343588e-03 1 1  ON 142
 udH_25                -4.070805e-05 1 1  ON 143
  </optVariables>
   Restore the number of walkers to 1, removing 0 walkers.
</opt>
</optimization-report>
  QMC Execution time = 5.411 secs

=========================================================
  Start QMCFixedSampleLinearOptimize
  File Root opt.s002 append = no 
=========================================================
  Skip QMCDriver::putQMCInfo 
  Resetting Properties of the walkers 1 x 14

=========================================================
  Start VMC
  File Root opt.s002 append = no 
=========================================================
Using existing walkers 
  Resetting Properties of the walkers 1 x 14

<vmc function="put">
  qmc_counter=1  my_counter=0
  time step      = 1.5
  blocks         = 100
  steps          = 20
  substeps       = 2
  current        = 0
  target samples = 3.2e+05
  walkers/mpi    = 1

  stepsbetweensamples = 6
  SpinMoves      = no
<parameter name="blocks" condition="int">100</parameter>
<parameter name="blocks_between_recompute" condition="int">0</parameter>
<parameter name="check_properties" condition="int">100</parameter>
<parameter name="checkproperties" condition="int">100</parameter>
<parameter name="current" condition="int">0</parameter>
<parameter name="dmcwalkersperthread" condition="real">295</parameter>
<parameter name="maxcpusecs" condition="real">3.6e+05</parameter>
<parameter name="record_configs" condition="int">0</parameter>
<parameter name="record_walkers" condition="int">6</parameter>
<parameter name="recordconfigs" condition="int">0</parameter>
<parameter name="recordwalkers" condition="int">6</parameter>
<parameter name="rewind" condition="int">0</parameter>
<parameter name="samples" condition="real">3.2e+05</parameter>
<parameter name="samplesperthread" condition="real">295</parameter>
<parameter name="spinmass" condition="double">1</parameter>
<parameter name="spinmoves" condition="string">no</parameter>
<parameter name="steps" condition="int">20</parameter>
<parameter name="stepsbetweensamples" condition="int">6</parameter>
<parameter name="store_configs" condition="int">0</parameter>
<parameter name="storeconfigs" condition="int">0</parameter>
<parameter name="sub_steps" condition="int">2</parameter>
<parameter name="substeps" condition="int">2</parameter>
<parameter name="tau" condition="au">1.5</parameter>
<parameter name="time_step" condition="au">1.5</parameter>
<parameter name="timestep" condition="au">1.5</parameter>
<parameter name="use_drift" condition="string">yes</parameter>
<parameter name="usedrift" condition="string">yes</parameter>
<parameter name="walkers" condition="int">1</parameter>
<parameter name="warmup_steps" condition="int">0</parameter>
<parameter name="warmupsteps" condition="int">0</parameter>
  DumpConfig==false Nothing (configurations, state) will be saved.
  Walker Samples are dumped every 6 steps.
</vmc>
    Restarting, cummulative properties:
      energy     = -2.206
      variance   = 0
      r2accepted = 1e-10
      r2proposed = 1e-10
  Set drift_modifier UNR parameter a = 1
  Adding a default LocalEnergyEstimator for the MainEstimator 
 Using QMCCostFunction::QMCCostFunction
  Set drift_modifier UNR parameter a = 1.0000e+00
<optimization-report>
<vmc stage="main" blocks="100">
  Cannot make clones again. Use existing 1 clones
  Initial partition of walkers 0 1 

  Using Particle by Particle moves
  Walker moves with drift
  Total Sample Size   =320960
  Walker distribution on root = 0 1 
  Using Locality Approximation
===== Memory Usage after the buffer registration =====
Available memory on node 0, free + buffers : 86654 MB
Memory footprint by rank 0 on node 0       : 99 MB
==================================================
  Anonymous Buffer size per walker : 13448 Bytes.
MEMORY increase 0 MB VMC::resetRun
====================================================
  SimpleFixedNodeBranch::finalize after a VMC block
    QMC counter        = 2
    time step          = 1.5
    reference energy   = -2.2481
    reference variance = 0.0282748
====================================================
  Execution time = 3.9715e+00
</vmc>
<opt stage="setup">
  <log>
   Reading configurations from h5FileRoot opt.s002
  QMCCostFunction is created with 1 threads.
  Using Nonlocal PP in Opt: no
   Number of samples loaded to each thread : 295 
  VMC Eavg = -2.2318e+00
  VMC Evar = 3.7723e-02
  Total weights = 3.2096e+05
  Execution time = 2.4134e-01
  </log>
</opt>
<opt stage="main" walkers="320960">
  <log>

*****************************************
Building overlap and Hamiltonian matrices
*****************************************

Among totally 144 optimized parameters, largest LM parameter change : 1.5959e-01 at parameter 10

******************************************************************************
Init Cost =   3.7723e-02    New Cost =   3.0249e-02  Delta Cost =  -7.4736e-03
******************************************************************************

The new set of parameters is valid. Updating the trial wave function!

*****************************************************************************
Applying the update for shift_i =   1.0000e-02     and shift_s =   6.2500e-02
*****************************************************************************
  Execution time = 4.6545e+00
  </log>
  <optVariables href="opt.s002.opt.xml">
   uu_0                 2.028383e-02 1 1  ON 0
   uu_1                 1.148768e-01 1 1  ON 1
   uu_2                 1.050708e-01 1 1  ON 2
   uu_3                 3.765957e-02 1 1  ON 3
   uu_4                -1.057473e-04 1 1  ON 4
   uu_5                -2.038338e-02 1 1  ON 5
   uu_6                -3.730974e-02 1 1  ON 6
   uu_7                -5.015592e-02 1 1  ON 7
   uu_8                -5.355922e-02 1 1  ON 8
   uu_9                -4.841887e-02 1 1  ON 9
   ud_0                 3.887598e-01 1 1  ON 10
   ud_1                 1.842000e-01 1 1  ON 11
   ud_2                 2.720082e-02 1 1  ON 12
   ud_3                -4.614632e-02 1 1  ON 13
   ud_4                -7.221193e-02 1 1  ON 14
   ud_5                -8.149240e-02 1 1  ON 15
   ud_6                -9.136268e-02 1 1  ON 16
   ud_7                -9.706565e-02 1 1  ON 17
   ud_8                -9.179881e-02 1 1  ON 18
   ud_9                -7.337543e-02 1 1  ON 19
  eBe_0                -8.835768e-02 1 1  ON 20
  eBe_1                -5.010721e-02 1 1  ON 21
  eBe_2                -5.385355e-02 1 1  ON 22
  eBe_3                -1.800389e-02 1 1  ON 23
  eBe_4                 2.753902e-02 1 1  ON 24
  eBe_5                 2.350751e-02 1 1  ON 25
  eBe_6                 3.369225e-02 1 1  ON 26
  eBe_7                 4.319472e-02 1 1  ON 27
  eBe_8                 3.087099e-02 1 1  ON 28
  eBe_9                 1.349608e-02 1 1  ON 29
   eH_0                -1.235394e-01 1 1  ON 30
   eH_1                -8.196781e-02 1 1  ON 31
   eH_2                -5.304968e-02 1 1  ON 32
   eH_3                -2.249652e-02 1 1  ON 33
   eH_4                 2.845035e-03 1 1  ON 34
   eH_5                 1.828648e-02 1 1  ON 35
   eH_6                 2.258351e-02 1 1  ON 36
   eH_7                 3.710805e-02 1 1  ON 37
   eH_8                 3.793272e-02 1 1  ON 38
   eH_9                 4.377394e-02 1 1  ON 39
 uuBe_0                 2.057596e-03 1 1  ON 40
 uuBe_1                 2.831601e-03 1 1  ON 41
 uuBe_2                -1.003872e-02 1 1  ON 42
 uuBe_3                 4.189248e-03 1 1  ON 43
 uuBe_4                 2.478064e-03 1 1  ON 44
 uuBe_5                 2.265242e-05 1 1  ON 45
 uuBe_6                 2.294005e-03 1 1  ON 46
 uuBe_7                 2.631778e-03 1 1  ON 47
 uuBe_8                -1.561353e-04 1 1  ON 48
 uuBe_9                -2.569740e-04 1 1  ON 49
uuBe_10                 1.079072e-03 1 1  ON 50
uuBe_11                -8.135439e-03 1 1  ON 51
uuBe_12                 4.842714e-04 1 1  ON 52
uuBe_13                -5.847496e-03 1 1  ON 53
uuBe_14                 6.663817e-03 1 1  ON 54
uuBe_15                -1.859756e-03 1 1  ON 55
uuBe_16                 6.770976e-03 1 1  ON 56
uuBe_17                 2.182550e-03 1 1  ON 57
uuBe_18                -8.026512e-03 1 1  ON 58
uuBe_19                 7.078430e-04 1 1  ON 59
uuBe_20                 8.219298e-03 1 1  ON 60
uuBe_21                 1.811374e-03 1 1  ON 61
uuBe_22                 8.574026e-04 1 1  ON 62
uuBe_23                -3.601085e-03 1 1  ON 63
uuBe_24                -2.850714e-03 1 1  ON 64
uuBe_25                 3.449016e-05 1 1  ON 65
 udBe_0                -5.649412e-03 1 1  ON 66
 udBe_1                 9.162257e-04 1 1  ON 67
 udBe_2                 2.159434e-03 1 1  ON 68
 udBe_3                 4.360304e-03 1 1  ON 69
 udBe_4                -1.219026e-03 1 1  ON 70
 udBe_5                -1.832397e-03 1 1  ON 71
 udBe_6                 6.787722e-03 1 1  ON 72
 udBe_7                 1.061894e-02 1 1  ON 73
 udBe_8                -6.829508e-03 1 1  ON 74
 udBe_9                 5.920557e-04 1 1  ON 75
udBe_10                 5.103487e-03 1 1  ON 76
udBe_11                -3.084502e-03 1 1  ON 77
udBe_12                 2.066161e-03 1 1  ON 78
udBe_13                -5.223389e-03 1 1  ON 79
udBe_14                 7.048410e-03 1 1  ON 80
udBe_15                -2.382285e-03 1 1  ON 81
udBe_16                 6.367336e-04 1 1  ON 82
udBe_17                 5.155746e-03 1 1  ON 83
udBe_18                -7.603828e-03 1 1  ON 84
udBe_19                -4.864843e-04 1 1  ON 85
udBe_20                -4.081738e-03 1 1  ON 86
udBe_21                -1.296025e-03 1 1  ON 87
udBe_22                 1.947692e-03 1 1  ON 88
udBe_23                 4.485079e-03 1 1  ON 89
udBe_24                -1.765182e-03 1 1  ON 90
udBe_25                -5.080727e-04 1 1  ON 91
  uuH_0                -2.942373e-03 1 1  ON 92
  uuH_1                 2.933197e-03 1 1  ON 93
  uuH_2                -6.963927e-03 1 1  ON 94
  uuH_3                 2.901100e-03 1 1  ON 95
  uuH_4                 6.230876e-03 1 1  ON 96
  uuH_5                 1.018674e-02 1 1  ON 97
  uuH_6                -9.623216e-04 1 1  ON 98
  uuH_7                 3.289039e-04 1 1  ON 99
  uuH_8                 6.152555e-03 1 1  ON 100
  uuH_9                -5.143522e-03 1 1  ON 101
 uuH_10                -6.443947e-04 1 1  ON 102
 uuH_11                 3.053084e-03 1 1  ON 103
 uuH_12                -3.691058e-03 1 1  ON 104
 uuH_13                -5.438508e-03 1 1  ON 105
 uuH_14                -6.477043e-03 1 1  ON 106
 uuH_15                 3.345672e-03 1 1  ON 107
 uuH_16                -5.035513e-04 1 1  ON 108
 uuH_17                 3.094025e-03 1 1  ON 109
 uuH_18                 4.030744e-03 1 1  ON 110
 uuH_19                -9.851068e-04 1 1  ON 111
 uuH_20                 2.772924e-03 1 1  ON 112
 uuH_21                 5.159434e-03 1 1  ON 113
 uuH_22                -2.916452e-03 1 1  ON 114
 uuH_23                 5.297531e-03 1 1  ON 115
 uuH_24                -3.385674e-03 1 1  ON 116
 uuH_25                 2.865134e-03 1 1  ON 117
  udH_0                -3.001668e-03 1 1  ON 118
  udH_1                -1.061368e-03 1 1  ON 119
  udH_2                 1.658986e-03 1 1  ON 120
  udH_3                 1.013206e-03 1 1  ON 121
  udH_4                -2.088826e-03 1 1  ON 122
  udH_5                -3.549003e-04 1 1  ON 123
  udH_6                -2.266536e-03 1 1  ON 124
  udH_7                 1.524969e-02 1 1  ON 125
  udH_8                 5.665607e-03 1 1  ON 126
  udH_9                 3.115703e-03 1 1  ON 127
 udH_10                 1.173664e-03 1 1  ON 128
 udH_11                -9.032939e-03 1 1  ON 129
 udH_12                -3.666098e-03 1 1  ON 130
 udH_13                -3.368252e-03 1 1  ON 131
 udH_14                 1.035404e-02 1 1  ON 132
 udH_15                -1.866521e-03 1 1  ON 133
 udH_16                -1.614224e-03 1 1  ON 134
 udH_17                 1.177228e-02 1 1  ON 135
 udH_18                -1.533408e-02 1 1  ON 136
 udH_19                 6.521377e-03 1 1  ON 137
 udH_20                -1.694985e-03 1 1  ON 138
 udH_21                 1.558691e-03 1 1  ON 139
 udH_22                -2.169693e-04 1 1  ON 140
 udH_23                 5.240665e-03 1 1  ON 141
 udH_24                -2.842089e-03 1 1  ON 142
 udH_25                 2.621919e-04 1 1  ON 143
  </optVariables>
   Restore the number of walkers to 1, removing 0 walkers.
</opt>
</optimization-report>
  QMC Execution time = 4.682 secs

=========================================================
  Start QMCFixedSampleLinearOptimize
  File Root opt.s003 append = no 
=========================================================
  Skip QMCDriver::putQMCInfo 
  Resetting Properties of the walkers 1 x 14

=========================================================
  Start VMC
  File Root opt.s003 append = no 
=========================================================
Using existing walkers 
  Resetting Properties of the walkers 1 x 14

<vmc function="put">
  qmc_counter=2  my_counter=0
  time step      = 1.5
  blocks         = 100
  steps          = 20
  substeps       = 2
  current        = 0
  target samples = 3.2e+05
  walkers/mpi    = 1

  stepsbetweensamples = 6
  SpinMoves      = no
<parameter name="blocks" condition="int">100</parameter>
<parameter name="blocks_between_recompute" condition="int">0</parameter>
<parameter name="check_properties" condition="int">100</parameter>
<parameter name="checkproperties" condition="int">100</parameter>
<parameter name="current" condition="int">0</parameter>
<parameter name="dmcwalkersperthread" condition="real">295</parameter>
<parameter name="maxcpusecs" condition="real">3.6e+05</parameter>
<parameter name="record_configs" condition="int">0</parameter>
<parameter name="record_walkers" condition="int">6</parameter>
<parameter name="recordconfigs" condition="int">0</parameter>
<parameter name="recordwalkers" condition="int">6</parameter>
<parameter name="rewind" condition="int">0</parameter>
<parameter name="samples" condition="real">3.2e+05</parameter>
<parameter name="samplesperthread" condition="real">295</parameter>
<parameter name="spinmass" condition="double">1</parameter>
<parameter name="spinmoves" condition="string">no</parameter>
<parameter name="steps" condition="int">20</parameter>
<parameter name="stepsbetweensamples" condition="int">6</parameter>
<parameter name="store_configs" condition="int">0</parameter>
<parameter name="storeconfigs" condition="int">0</parameter>
<parameter name="sub_steps" condition="int">2</parameter>
<parameter name="substeps" condition="int">2</parameter>
<parameter name="tau" condition="au">1.5</parameter>
<parameter name="time_step" condition="au">1.5</parameter>
<parameter name="timestep" condition="au">1.5</parameter>
<parameter name="use_drift" condition="string">yes</parameter>
<parameter name="usedrift" condition="string">yes</parameter>
<parameter name="walkers" condition="int">1</parameter>
<parameter name="warmup_steps" condition="int">0</parameter>
<parameter name="warmupsteps" condition="int">0</parameter>
  DumpConfig==false Nothing (configurations, state) will be saved.
  Walker Samples are dumped every 6 steps.
</vmc>
    Restarting, cummulative properties:
      energy     = -2.22
      variance   = 0
      r2accepted = 1e-10
      r2proposed = 1e-10
  Set drift_modifier UNR parameter a = 1
  Adding a default LocalEnergyEstimator for the MainEstimator 
 Using QMCCostFunction::QMCCostFunction
  Set drift_modifier UNR parameter a = 1.0000e+00
<optimization-report>
<vmc stage="main" blocks="100">
  Cannot make clones again. Use existing 1 clones
  Initial partition of walkers 0 1 

  Using Particle by Particle moves
  Walker moves with drift
  Total Sample Size   =320960
  Walker distribution on root = 0 1 
  Using Locality Approximation
===== Memory Usage after the buffer registration =====
Available memory on node 0, free + buffers : 86666 MB
Memory footprint by rank 0 on node 0       : 102 MB
==================================================
  Anonymous Buffer size per walker : 13448 Bytes.
MEMORY increase 0 MB VMC::resetRun
====================================================
  SimpleFixedNodeBranch::finalize after a VMC block
    QMC counter        = 3
    time step          = 1.5
    reference energy   = -2.23169
    reference variance = 0.0260644
====================================================
  Execution time = 3.8077e+00
</vmc>
<opt stage="setup">
  <log>
   Reading configurations from h5FileRoot opt.s003
  QMCCostFunction is created with 1 threads.
  Using Nonlocal PP in Opt: no
   Number of samples loaded to each thread : 295 
  VMC Eavg = -2.2361e+00
  VMC Evar = 2.7768e-02
  Total weights = 3.2096e+05
  Execution time = 2.4147e-01
  </log>
</opt>
<opt stage="main" walkers="320960">
  <log>

*****************************************
Building overlap and Hamiltonian matrices
*****************************************

Among totally 144 optimized parameters, largest LM parameter change : 9.1282e-02 at parameter 10

******************************************************************************
Init Cost =   2.7768e-02    New Cost =   2.5356e-02  Delta Cost =  -2.4123e-03
******************************************************************************

The new set of parameters is valid. Updating the trial wave function!

*****************************************************************************
Applying the update for shift_i =   1.0000e-02     and shift_s =   1.5625e-02
*****************************************************************************
  Execution time = 4.4112e+00
  </log>
  <optVariables href="opt.s003.opt.xml">
   uu_0                 3.080545e-02 1 1  ON 0
   uu_1                 1.554959e-01 1 1  ON 1
   uu_2                 1.265122e-01 1 1  ON 2
   uu_3                 5.048725e-02 1 1  ON 3
   uu_4                 5.400671e-03 1 1  ON 4
   uu_5                -2.060599e-02 1 1  ON 5
   uu_6                -4.329750e-02 1 1  ON 6
   uu_7                -6.047435e-02 1 1  ON 7
   uu_8                -6.711112e-02 1 1  ON 8
   uu_9                -6.449779e-02 1 1  ON 9
   ud_0                 4.800417e-01 1 1  ON 10
   ud_1                 2.144268e-01 1 1  ON 11
   ud_2                 4.074521e-02 1 1  ON 12
   ud_3                -4.029774e-02 1 1  ON 13
   ud_4                -7.368367e-02 1 1  ON 14
   ud_5                -9.033265e-02 1 1  ON 15
   ud_6                -1.060352e-01 1 1  ON 16
   ud_7                -1.162609e-01 1 1  ON 17
   ud_8                -1.126366e-01 1 1  ON 18
   ud_9                -9.487982e-02 1 1  ON 19
  eBe_0                -1.189309e-01 1 1  ON 20
  eBe_1                -6.622426e-02 1 1  ON 21
  eBe_2                -6.959749e-02 1 1  ON 22
  eBe_3                -2.906893e-02 1 1  ON 23
  eBe_4                 2.305334e-02 1 1  ON 24
  eBe_5                 2.781809e-02 1 1  ON 25
  eBe_6                 4.626600e-02 1 1  ON 26
  eBe_7                 6.610231e-02 1 1  ON 27
  eBe_8                 5.103589e-02 1 1  ON 28
  eBe_9                 2.108306e-02 1 1  ON 29
   eH_0                -1.577656e-01 1 1  ON 30
   eH_1                -1.119516e-01 1 1  ON 31
   eH_2                -8.027598e-02 1 1  ON 32
   eH_3                -3.739746e-02 1 1  ON 33
   eH_4                -3.451179e-03 1 1  ON 34
   eH_5                 2.170065e-02 1 1  ON 35
   eH_6                 3.319271e-02 1 1  ON 36
   eH_7                 5.256181e-02 1 1  ON 37
   eH_8                 5.405520e-02 1 1  ON 38
   eH_9                 5.793330e-02 1 1  ON 39
 uuBe_0                 3.613462e-03 1 1  ON 40
 uuBe_1                 4.410408e-03 1 1  ON 41
 uuBe_2                -1.096913e-02 1 1  ON 42
 uuBe_3                 2.927757e-03 1 1  ON 43
 uuBe_4                 3.945880e-03 1 1  ON 44
 uuBe_5                 3.407975e-04 1 1  ON 45
 uuBe_6                 1.430889e-03 1 1  ON 46
 uuBe_7                 4.025506e-03 1 1  ON 47
 uuBe_8                 3.529414e-04 1 1  ON 48
 uuBe_9                -1.167833e-03 1 1  ON 49
uuBe_10                 1.558646e-03 1 1  ON 50
uuBe_11                -9.635405e-03 1 1  ON 51
uuBe_12                 5.596364e-04 1 1  ON 52
uuBe_13                -8.177511e-03 1 1  ON 53
uuBe_14                 7.446331e-03 1 1  ON 54
uuBe_15                -1.987814e-03 1 1  ON 55
uuBe_16                 8.169066e-03 1 1  ON 56
uuBe_17                 2.234913e-03 1 1  ON 57
uuBe_18                -1.073993e-02 1 1  ON 58
uuBe_19                 2.099590e-03 1 1  ON 59
uuBe_20                 1.012282e-02 1 1  ON 60
uuBe_21                 2.097964e-03 1 1  ON 61
uuBe_22                 4.734542e-04 1 1  ON 62
uuBe_23                -4.241719e-03 1 1  ON 63
uuBe_24                -2.932901e-03 1 1  ON 64
uuBe_25                 1.944106e-04 1 1  ON 65
 udBe_0                -5.813507e-03 1 1  ON 66
 udBe_1                 3.097414e-04 1 1  ON 67
 udBe_2                 2.978746e-03 1 1  ON 68
 udBe_3                 4.443359e-03 1 1  ON 69
 udBe_4                -2.722420e-03 1 1  ON 70
 udBe_5                -2.262462e-03 1 1  ON 71
 udBe_6                 7.417036e-03 1 1  ON 72
 udBe_7                 1.545242e-02 1 1  ON 73
 udBe_8                -7.153836e-03 1 1  ON 74
 udBe_9                 1.447870e-04 1 1  ON 75
udBe_10                 3.879964e-03 1 1  ON 76
udBe_11                -3.185659e-03 1 1  ON 77
udBe_12                 2.498885e-03 1 1  ON 78
udBe_13                -5.593662e-03 1 1  ON 79
udBe_14                 7.169672e-03 1 1  ON 80
udBe_15                -2.575487e-03 1 1  ON 81
udBe_16                 1.783560e-03 1 1  ON 82
udBe_17                 5.679000e-03 1 1  ON 83
udBe_18                -1.061766e-02 1 1  ON 84
udBe_19                -1.366593e-03 1 1  ON 85
udBe_20                -3.349897e-03 1 1  ON 86
udBe_21                -1.200594e-04 1 1  ON 87
udBe_22                 2.104888e-03 1 1  ON 88
udBe_23                 2.861031e-03 1 1  ON 89
udBe_24                -1.856411e-03 1 1  ON 90
udBe_25                -5.764919e-04 1 1  ON 91
  uuH_0                -3.369053e-03 1 1  ON 92
  uuH_1                 6.939514e-03 1 1  ON 93
  uuH_2                -4.371675e-03 1 1  ON 94
  uuH_3                 4.486669e-03 1 1  ON 95
  uuH_4                 3.368930e-03 1 1  ON 96
  uuH_5                 8.124543e-03 1 1  ON 97
  uuH_6                -4.226096e-03 1 1  ON 98
  uuH_7                -2.415205e-04 1 1  ON 99
  uuH_8                 5.910274e-03 1 1  ON 100
  uuH_9                -4.753630e-03 1 1  ON 101
 uuH_10                 7.466500e-04 1 1  ON 102
 uuH_11                 5.180290e-03 1 1  ON 103
 uuH_12                -3.761912e-03 1 1  ON 104
 uuH_13                -7.109430e-03 1 1  ON 105
 uuH_14                -5.170921e-03 1 1  ON 106
 uuH_15                 2.743443e-03 1 1  ON 107
 uuH_16                 1.484416e-03 1 1  ON 108
 uuH_17                 5.367216e-03 1 1  ON 109
 uuH_18                 5.674272e-03 1 1  ON 110
 uuH_19                -2.504373e-03 1 1  ON 111
 uuH_20                 3.607357e-03 1 1  ON 112
 uuH_21                 5.830055e-03 1 1  ON 113
 uuH_22                -3.483518e-03 1 1  ON 114
 uuH_23                 3.798516e-03 1 1  ON 115
 uuH_24                -6.373033e-03 1 1  ON 116
 uuH_25                 4.276885e-03 1 1  ON 117
  udH_0                -3.034544e-03 1 1  ON 118
  udH_1                -7.163557e-04 1 1  ON 119
  udH_2                 3.637883e-03 1 1  ON 120
  udH_3                -7.245201e-04 1 1  ON 121
  udH_4                -4.171546e-03 1 1  ON 122
  udH_5                -5.866303e-04 1 1  ON 123
  udH_6                -1.907609e-03 1 1  ON 124
  udH_7                 1.864194e-02 1 1  ON 125
  udH_8                 9.270647e-03 1 1  ON 126
  udH_9                 2.976042e-03 1 1  ON 127
 udH_10                -1.141739e-03 1 1  ON 128
 udH_11                -9.296128e-03 1 1  ON 129
 udH_12                -5.618594e-03 1 1  ON 130
 udH_13                -2.159529e-03 1 1  ON 131
 udH_14                 1.109423e-02 1 1  ON 132
 udH_15                -1.548491e-03 1 1  ON 133
 udH_16                -4.533522e-03 1 1  ON 134
 udH_17                 1.530912e-02 1 1  ON 135
 udH_18                -1.815298e-02 1 1  ON 136
 udH_19                 8.133105e-03 1 1  ON 137
 udH_20                 3.679533e-04 1 1  ON 138
 udH_21                 2.442434e-03 1 1  ON 139
 udH_22                -9.351622e-04 1 1  ON 140
 udH_23                 2.142550e-03 1 1  ON 141
 udH_24                -2.433239e-03 1 1  ON 142
 udH_25                 4.729029e-04 1 1  ON 143
  </optVariables>
   Restore the number of walkers to 1, removing 0 walkers.
</opt>
</optimization-report>
  QMC Execution time = 4.439 secs

=========================================================
  Start QMCFixedSampleLinearOptimize
  File Root opt.s004 append = no 
=========================================================
  Skip QMCDriver::putQMCInfo 
  Resetting Properties of the walkers 1 x 14

=========================================================
  Start VMC
  File Root opt.s004 append = no 
=========================================================
Using existing walkers 
  Resetting Properties of the walkers 1 x 14

<vmc function="put">
  qmc_counter=3  my_counter=0
  time step      = 1.5
  blocks         = 100
  steps          = 20
  substeps       = 2
  current        = 0
  target samples = 3.2e+05
  walkers/mpi    = 1

  stepsbetweensamples = 6
  SpinMoves      = no
<parameter name="blocks" condition="int">100</parameter>
<parameter name="blocks_between_recompute" condition="int">0</parameter>
<parameter name="check_properties" condition="int">100</parameter>
<parameter name="checkproperties" condition="int">100</parameter>
<parameter name="current" condition="int">0</parameter>
<parameter name="dmcwalkersperthread" condition="real">295</parameter>
<parameter name="maxcpusecs" condition="real">3.6e+05</parameter>
<parameter name="record_configs" condition="int">0</parameter>
<parameter name="record_walkers" condition="int">6</parameter>
<parameter name="recordconfigs" condition="int">0</parameter>
<parameter name="recordwalkers" condition="int">6</parameter>
<parameter name="rewind" condition="int">0</parameter>
<parameter name="samples" condition="real">3.2e+05</parameter>
<parameter name="samplesperthread" condition="real">295</parameter>
<parameter name="spinmass" condition="double">1</parameter>
<parameter name="spinmoves" condition="string">no</parameter>
<parameter name="steps" condition="int">20</parameter>
<parameter name="stepsbetweensamples" condition="int">6</parameter>
<parameter name="store_configs" condition="int">0</parameter>
<parameter name="storeconfigs" condition="int">0</parameter>
<parameter name="sub_steps" condition="int">2</parameter>
<parameter name="substeps" condition="int">2</parameter>
<parameter name="tau" condition="au">1.5</parameter>
<parameter name="time_step" condition="au">1.5</parameter>
<parameter name="timestep" condition="au">1.5</parameter>
<parameter name="use_drift" condition="string">yes</parameter>
<parameter name="usedrift" condition="string">yes</parameter>
<parameter name="walkers" condition="int">1</parameter>
<parameter name="warmup_steps" condition="int">0</parameter>
<parameter name="warmupsteps" condition="int">0</parameter>
  DumpConfig==false Nothing (configurations, state) will be saved.
  Walker Samples are dumped every 6 steps.
</vmc>
    Restarting, cummulative properties:
      energy     = -2.223
      variance   = 0
      r2accepted = 1e-10
      r2proposed = 1e-10
  Set drift_modifier UNR parameter a = 1
  Adding a default LocalEnergyEstimator for the MainEstimator 
 Using QMCCostFunction::QMCCostFunction
  Set drift_modifier UNR parameter a = 1.0000e+00
<optimization-report>
<vmc stage="main" blocks="100">
  Cannot make clones again. Use existing 1 clones
  Initial partition of walkers 0 1 

  Using Particle by Particle moves
  Walker moves with drift
  Total Sample Size   =320960
  Walker distribution on root = 0 1 
  Using Locality Approximation
===== Memory Usage after the buffer registration =====
Available memory on node 0, free + buffers : 86673 MB
Memory footprint by rank 0 on node 0       : 104 MB
==================================================
  Anonymous Buffer size per walker : 13448 Bytes.
MEMORY increase 0 MB VMC::resetRun
====================================================
  SimpleFixedNodeBranch::finalize after a VMC block
    QMC counter        = 4
    time step          = 1.5
    reference energy   = -2.22786
    reference variance = 0.0312085
====================================================
  Execution time = 4.0811e+00
</vmc>
<opt stage="setup">
  <log>
   Reading configurations from h5FileRoot opt.s004
  QMCCostFunction is created with 1 threads.
  Using Nonlocal PP in Opt: no
   Number of samples loaded to each thread : 295 
  VMC Eavg = -2.2367e+00
  VMC Evar = 2.5482e-02
  Total weights = 3.2096e+05
  Execution time = 2.4537e-01
  </log>
</opt>
<opt stage="main" walkers="320960">
  <log>

*****************************************
Building overlap and Hamiltonian matrices
*****************************************

Among totally 144 optimized parameters, largest LM parameter change : 5.2527e-02 at parameter 10

******************************************************************************
Init Cost =   2.5482e-02    New Cost =   2.4658e-02  Delta Cost =  -8.2391e-04
******************************************************************************

The new set of parameters is valid. Updating the trial wave function!

*****************************************************************************
Applying the update for shift_i =   1.0000e-02     and shift_s =   3.9062e-03
*****************************************************************************
  Execution time = 4.6822e+00
  </log>
  <optVariables href="opt.s004.opt.xml">
   uu_0                 4.178544e-02 1 1  ON 0
   uu_1                 1.913878e-01 1 1  ON 1
   uu_2                 1.394059e-01 1 1  ON 2
   uu_3                 6.062038e-02 1 1  ON 3
   uu_4                 1.298323e-02 1 1  ON 4
   uu_5                -1.761738e-02 1 1  ON 5
   uu_6                -4.493226e-02 1 1  ON 6
   uu_7                -6.613671e-02 1 1  ON 7
   uu_8                -7.535362e-02 1 1  ON 8
   uu_9                -7.578399e-02 1 1  ON 9
   ud_0                 5.325690e-01 1 1  ON 10
   ud_1                 2.331924e-01 1 1  ON 11
   ud_2                 5.241436e-02 1 1  ON 12
   ud_3                -3.157608e-02 1 1  ON 13
   ud_4                -6.878877e-02 1 1  ON 14
   ud_5                -9.005832e-02 1 1  ON 15
   ud_6                -1.101247e-01 1 1  ON 16
   ud_7                -1.251212e-01 1 1  ON 17
   ud_8                -1.241429e-01 1 1  ON 18
   ud_9                -1.098250e-01 1 1  ON 19
  eBe_0                -1.389366e-01 1 1  ON 20
  eBe_1                -7.727159e-02 1 1  ON 21
  eBe_2                -8.248051e-02 1 1  ON 22
  eBe_3                -3.808458e-02 1 1  ON 23
  eBe_4                 1.647721e-02 1 1  ON 24
  eBe_5                 2.671865e-02 1 1  ON 25
  eBe_6                 5.160772e-02 1 1  ON 26
  eBe_7                 8.072925e-02 1 1  ON 27
  eBe_8                 6.898311e-02 1 1  ON 28
  eBe_9                 2.949692e-02 1 1  ON 29
   eH_0                -1.811608e-01 1 1  ON 30
   eH_1                -1.325393e-01 1 1  ON 31
   eH_2                -1.013271e-01 1 1  ON 32
   eH_3                -5.280089e-02 1 1  ON 33
   eH_4                -1.312496e-02 1 1  ON 34
   eH_5                 1.969925e-02 1 1  ON 35
   eH_6                 3.656459e-02 1 1  ON 36
   eH_7                 6.360486e-02 1 1  ON 37
   eH_8                 6.775127e-02 1 1  ON 38
   eH_9                 6.811817e-02 1 1  ON 39
 uuBe_0                 2.337397e-03 1 1  ON 40
 uuBe_1                 4.753559e-03 1 1  ON 41
 uuBe_2                -1.024405e-02 1 1  ON 42
 uuBe_3                 2.717340e-03 1 1  ON 43
 uuBe_4                 4.409747e-03 1 1  ON 44
 uuBe_5                 7.753254e-04 1 1  ON 45
 uuBe_6                 1.200063e-03 1 1  ON 46
 uuBe_7                 6.313590e-03 1 1  ON 47
 uuBe_8                -3.167049e-04 1 1  ON 48
 uuBe_9                -1.955087e-03 1 1  ON 49
uuBe_10                 2.223837e-03 1 1  ON 50
uuBe_11                -9.625033e-03 1 1  ON 51
uuBe_12                 6.440737e-04 1 1  ON 52
uuBe_13                -8.951703e-03 1 1  ON 53
uuBe_14                 8.082680e-03 1 1  ON 54
uuBe_15                -2.190006e-03 1 1  ON 55
uuBe_16                 9.009258e-03 1 1  ON 56
uuBe_17                 2.787067e-03 1 1  ON 57
uuBe_18                -1.247473e-02 1 1  ON 58
uuBe_19                 2.313388e-03 1 1  ON 59
uuBe_20                 1.036417e-02 1 1  ON 60
uuBe_21                 2.368008e-03 1 1  ON 61
uuBe_22                 5.430615e-04 1 1  ON 62
uuBe_23                -5.554438e-03 1 1  ON 63
uuBe_24                -2.924688e-03 1 1  ON 64
uuBe_25                 1.559789e-04 1 1  ON 65
 udBe_0                -6.862067e-03 1 1  ON 66
 udBe_1                -3.776935e-04 1 1  ON 67
 udBe_2                 4.351068e-03 1 1  ON 68
 udBe_3                 3.767621e-03 1 1  ON 69
 udBe_4                -3.349020e-03 1 1  ON 70
 udBe_5                -2.040982e-03 1 1  ON 71
 udBe_6                 7.377370e-03 1 1  ON 72
 udBe_7                 1.999841e-02 1 1  ON 73
 udBe_8                -6.944611e-03 1 1  ON 74
 udBe_9                -2.932966e-04 1 1  ON 75
udBe_10                 2.376328e-03 1 1  ON 76
udBe_11                -2.802454e-03 1 1  ON 77
udBe_12                 3.253821e-03 1 1  ON 78
udBe_13                -5.154994e-03 1 1  ON 79
udBe_14                 5.886505e-03 1 1  ON 80
udBe_15                -2.405334e-03 1 1  ON 81
udBe_16                 2.203733e-03 1 1  ON 82
udBe_17                 5.939079e-03 1 1  ON 83
udBe_18                -1.294321e-02 1 1  ON 84
udBe_19                -1.398700e-03 1 1  ON 85
udBe_20                -2.955850e-03 1 1  ON 86
udBe_21                 8.279006e-04 1 1  ON 87
udBe_22                 1.690766e-03 1 1  ON 88
udBe_23                 2.043746e-03 1 1  ON 89
udBe_24                -1.667671e-03 1 1  ON 90
udBe_25                -4.380338e-04 1 1  ON 91
  uuH_0                 5.311717e-04 1 1  ON 92
  uuH_1                 2.513171e-03 1 1  ON 93
  uuH_2                -4.467252e-03 1 1  ON 94
  uuH_3                 1.989443e-03 1 1  ON 95
  uuH_4                 2.939157e-03 1 1  ON 96
  uuH_5                 8.397998e-03 1 1  ON 97
  uuH_6                -1.898345e-03 1 1  ON 98
  uuH_7                -1.231403e-04 1 1  ON 99
  uuH_8                 6.419717e-03 1 1  ON 100
  uuH_9                -4.446657e-03 1 1  ON 101
 uuH_10                 3.613063e-04 1 1  ON 102
 uuH_11                 3.702529e-03 1 1  ON 103
 uuH_12                -3.078657e-03 1 1  ON 104
 uuH_13                -7.389654e-03 1 1  ON 105
 uuH_14                -8.174105e-03 1 1  ON 106
 uuH_15                 3.562775e-03 1 1  ON 107
 uuH_16                -8.161083e-05 1 1  ON 108
 uuH_17                 4.739373e-03 1 1  ON 109
 uuH_18                 5.140407e-03 1 1  ON 110
 uuH_19                -1.179706e-03 1 1  ON 111
 uuH_20                 2.889942e-03 1 1  ON 112
 uuH_21                 5.851701e-03 1 1  ON 113
 uuH_22                -3.879117e-03 1 1  ON 114
 uuH_23                 6.102899e-03 1 1  ON 115
 uuH_24                -3.554938e-03 1 1  ON 116
 uuH_25                 3.410262e-03 1 1  ON 117
  udH_0                -3.215879e-03 1 1  ON 118
  udH_1                -2.749532e-04 1 1  ON 119
  udH_2                 5.028686e-03 1 1  ON 120
  udH_3                -1.966015e-03 1 1  ON 121
  udH_4                -5.541517e-03 1 1  ON 122
  udH_5                -7.473970e-04 1 1  ON 123
  udH_6                -1.261876e-03 1 1  ON 124
  udH_7                 2.096309e-02 1 1  ON 125
  udH_8                 1.182497e-02 1 1  ON 126
  udH_9                 2.812552e-03 1 1  ON 127
 udH_10                -2.814475e-03 1 1  ON 128
 udH_11                -9.409757e-03 1 1  ON 129
 udH_12                -6.858179e-03 1 1  ON 130
 udH_13                -1.206480e-03 1 1  ON 131
 udH_14                 1.171042e-02 1 1  ON 132
 udH_15                -1.397555e-03 1 1  ON 133
 udH_16                -6.666621e-03 1 1  ON 134
 udH_17                 1.825894e-02 1 1  ON 135
 udH_18                -2.028484e-02 1 1  ON 136
 udH_19                 8.955983e-03 1 1  ON 137
 udH_20                 1.573336e-03 1 1  ON 138
 udH_21                 3.012282e-03 1 1  ON 139
 udH_22                -1.284516e-03 1 1  ON 140
 udH_23                 4.276194e-04 1 1  ON 141
 udH_24                -2.255629e-03 1 1  ON 142
 udH_25                 5.833614e-04 1 1  ON 143
  </optVariables>
   Restore the number of walkers to 1, removing 0 walkers.
</opt>
</optimization-report>
  QMC Execution time = 4.709 secs

=========================================================
  Start QMCFixedSampleLinearOptimize
  File Root opt.s005 append = no 
=========================================================
  Skip QMCDriver::putQMCInfo 
  Resetting Properties of the walkers 1 x 14

=========================================================
  Start VMC
  File Root opt.s005 append = no 
=========================================================
Using existing walkers 
  Resetting Properties of the walkers 1 x 14

<vmc function="put">
  qmc_counter=4  my_counter=0
  time step      = 1.5
  blocks         = 100
  steps          = 20
  substeps       = 2
  current        = 0
  target samples = 3.2e+05
  walkers/mpi    = 1

  stepsbetweensamples = 6
  SpinMoves      = no
<parameter name="blocks" condition="int">100</parameter>
<parameter name="blocks_between_recompute" condition="int">0</parameter>
<parameter name="check_properties" condition="int">100</parameter>
<parameter name="checkproperties" condition="int">100</parameter>
<parameter name="current" condition="int">0</parameter>
<parameter name="dmcwalkersperthread" condition="real">295</parameter>
<parameter name="maxcpusecs" condition="real">3.6e+05</parameter>
<parameter name="record_configs" condition="int">0</parameter>
<parameter name="record_walkers" condition="int">6</parameter>
<parameter name="recordconfigs" condition="int">0</parameter>
<parameter name="recordwalkers" condition="int">6</parameter>
<parameter name="rewind" condition="int">0</parameter>
<parameter name="samples" condition="real">3.2e+05</parameter>
<parameter name="samplesperthread" condition="real">295</parameter>
<parameter name="spinmass" condition="double">1</parameter>
<parameter name="spinmoves" condition="string">no</parameter>
<parameter name="steps" condition="int">20</parameter>
<parameter name="stepsbetweensamples" condition="int">6</parameter>
<parameter name="store_configs" condition="int">0</parameter>
<parameter name="storeconfigs" condition="int">0</parameter>
<parameter name="sub_steps" condition="int">2</parameter>
<parameter name="substeps" condition="int">2</parameter>
<parameter name="tau" condition="au">1.5</parameter>
<parameter name="time_step" condition="au">1.5</parameter>
<parameter name="timestep" condition="au">1.5</parameter>
<parameter name="use_drift" condition="string">yes</parameter>
<parameter name="usedrift" condition="string">yes</parameter>
<parameter name="walkers" condition="int">1</parameter>
<parameter name="warmup_steps" condition="int">0</parameter>
<parameter name="warmupsteps" condition="int">0</parameter>
  DumpConfig==false Nothing (configurations, state) will be saved.
  Walker Samples are dumped every 6 steps.
</vmc>
    Restarting, cummulative properties:
      energy     = -2.224
      variance   = 0
      r2accepted = 1e-10
      r2proposed = 1e-10
  Set drift_modifier UNR parameter a = 1
  Adding a default LocalEnergyEstimator for the MainEstimator 
 Using QMCCostFunction::QMCCostFunction
  Set drift_modifier UNR parameter a = 1.0000e+00
<optimization-report>
<vmc stage="main" blocks="100">
  Cannot make clones again. Use existing 1 clones
  Initial partition of walkers 0 1 

  Using Particle by Particle moves
  Walker moves with drift
  Total Sample Size   =320960
  Walker distribution on root = 0 1 
  Using Locality Approximation
===== Memory Usage after the buffer registration =====
Available memory on node 0, free + buffers : 86694 MB
Memory footprint by rank 0 on node 0       : 106 MB
==================================================
  Anonymous Buffer size per walker : 13448 Bytes.
MEMORY increase 0 MB VMC::resetRun
====================================================
  SimpleFixedNodeBranch::finalize after a VMC block
    QMC counter        = 5
    time step          = 1.5
    reference energy   = -2.2377
    reference variance = 0.021507
====================================================
  Execution time = 3.8691e+00
</vmc>
<opt stage="setup">
  <log>
   Reading configurations from h5FileRoot opt.s005
  QMCCostFunction is created with 1 threads.
  Using Nonlocal PP in Opt: no
   Number of samples loaded to each thread : 295 
  VMC Eavg = -2.2366e+00
  VMC Evar = 2.3923e-02
[...]
******************************************************************************

The new set of parameters is not valid. Revert to the old set!

*****************************************************************************
Applying the update for shift_i =   1.0000e-02     and shift_s =   2.5000e-01
*****************************************************************************
  Execution time = 1.9159e+01
  </log>
  <optVariables href="opt.s049.opt.xml">
   uu_0                 3.709736e-01 1 1  ON 0
   uu_1                 4.590139e-01 1 1  ON 1
   uu_2                 3.336377e-01 1 1  ON 2
   uu_3                 2.451239e-01 1 1  ON 3
   uu_4                 1.845819e-01 1 1  ON 4
   uu_5                 1.401919e-01 1 1  ON 5
   uu_6                 9.669429e-02 1 1  ON 6
   uu_7                 5.622001e-02 1 1  ON 7
   uu_8                 2.077997e-02 1 1  ON 8
   uu_9                -8.627035e-03 1 1  ON 9
   ud_0                 7.804357e-01 1 1  ON 10
   ud_1                 4.381005e-01 1 1  ON 11
   ud_2                 2.503652e-01 1 1  ON 12
   ud_3                 1.625075e-01 1 1  ON 13
   ud_4                 1.178902e-01 1 1  ON 14
   ud_5                 8.428241e-02 1 1  ON 15
   ud_6                 4.853290e-02 1 1  ON 16
   ud_7                 1.468506e-02 1 1  ON 17
   ud_8                -1.173876e-02 1 1  ON 18
   ud_9                -3.048472e-02 1 1  ON 19
  eBe_0                -2.901924e-01 1 1  ON 20
  eBe_1                -2.063198e-01 1 1  ON 21
  eBe_2                -2.058282e-01 1 1  ON 22
  eBe_3                -1.509835e-01 1 1  ON 23
  eBe_4                -8.872656e-02 1 1  ON 24
  eBe_5                -7.102235e-02 1 1  ON 25
  eBe_6                -3.242555e-02 1 1  ON 26
  eBe_7                 5.111875e-02 1 1  ON 27
  eBe_8                 1.527500e-01 1 1  ON 28
  eBe_9                 1.896935e-01 1 1  ON 29
   eH_0                -3.744809e-01 1 1  ON 30
   eH_1                -3.248272e-01 1 1  ON 31
   eH_2                -2.917916e-01 1 1  ON 32
   eH_3                -2.379056e-01 1 1  ON 33
   eH_4                -1.922324e-01 1 1  ON 34
   eH_5                -1.422160e-01 1 1  ON 35
   eH_6                -1.034911e-01 1 1  ON 36
   eH_7                -4.372671e-02 1 1  ON 37
   eH_8                 5.856077e-03 1 1  ON 38
   eH_9                 5.136347e-02 1 1  ON 39
 uuBe_0                -2.097238e-03 1 1  ON 40
 uuBe_1                 3.797058e-03 1 1  ON 41
 uuBe_2                 2.450458e-03 1 1  ON 42
 uuBe_3                 2.328217e-03 1 1  ON 43
 uuBe_4                 3.160536e-03 1 1  ON 44
 uuBe_5                 1.178156e-03 1 1  ON 45
 uuBe_6                -2.022725e-03 1 1  ON 46
 uuBe_7                 2.295960e-02 1 1  ON 47
 uuBe_8                 4.009731e-03 1 1  ON 48
 uuBe_9                -3.378638e-03 1 1  ON 49
uuBe_10                 5.974171e-03 1 1  ON 50
uuBe_11                -1.402256e-02 1 1  ON 51
uuBe_12                 2.227915e-03 1 1  ON 52
uuBe_13                -6.194029e-03 1 1  ON 53
uuBe_14                 5.188579e-03 1 1  ON 54
uuBe_15                -1.517948e-03 1 1  ON 55
uuBe_16                -9.734360e-04 1 1  ON 56
uuBe_17                 9.681160e-03 1 1  ON 57
uuBe_18                -3.244147e-02 1 1  ON 58
uuBe_19                 6.332584e-03 1 1  ON 59
uuBe_20                 1.257029e-02 1 1  ON 60
uuBe_21                 1.290343e-02 1 1  ON 61
uuBe_22                -3.107772e-03 1 1  ON 62
uuBe_23                -1.036870e-02 1 1  ON 63
uuBe_24                -6.537781e-03 1 1  ON 64
uuBe_25                 1.935284e-03 1 1  ON 65
 udBe_0                -1.003144e-02 1 1  ON 66
 udBe_1                 8.849947e-04 1 1  ON 67
 udBe_2                 6.017044e-03 1 1  ON 68
 udBe_3                -1.529160e-03 1 1  ON 69
 udBe_4                -1.109021e-02 1 1  ON 70
 udBe_5                -1.207670e-03 1 1  ON 71
 udBe_6                 3.716825e-03 1 1  ON 72
 udBe_7                 6.084335e-02 1 1  ON 73
 udBe_8                -4.024102e-03 1 1  ON 74
 udBe_9                -1.892124e-03 1 1  ON 75
udBe_10                -9.358368e-03 1 1  ON 76
udBe_11                -3.793043e-03 1 1  ON 77
udBe_12                 1.851362e-03 1 1  ON 78
udBe_13                -4.928312e-03 1 1  ON 79
udBe_14                 7.743544e-03 1 1  ON 80
udBe_15                -2.275991e-03 1 1  ON 81
udBe_16                 4.708118e-04 1 1  ON 82
udBe_17                 2.026627e-02 1 1  ON 83
udBe_18                -4.443877e-02 1 1  ON 84
udBe_19                 5.803544e-03 1 1  ON 85
udBe_20                 4.229100e-03 1 1  ON 86
udBe_21                 1.148637e-02 1 1  ON 87
udBe_22                -1.916217e-03 1 1  ON 88
udBe_23                -4.321872e-03 1 1  ON 89
udBe_24                -5.166188e-03 1 1  ON 90
udBe_25                 1.196667e-03 1 1  ON 91
  uuH_0                -2.174058e-03 1 1  ON 92
  uuH_1                 2.193246e-03 1 1  ON 93
  uuH_2                 1.789464e-03 1 1  ON 94
  uuH_3                -3.024195e-03 1 1  ON 95
  uuH_4                 4.189744e-03 1 1  ON 96
  uuH_5                 5.003413e-03 1 1  ON 97
  uuH_6                -6.827461e-03 1 1  ON 98
  uuH_7                -7.904452e-03 1 1  ON 99
  uuH_8                 9.998825e-03 1 1  ON 100
  uuH_9                 4.663207e-03 1 1  ON 101
 uuH_10                 2.535189e-03 1 1  ON 102
 uuH_11                 2.427404e-04 1 1  ON 103
 uuH_12                -5.937019e-04 1 1  ON 104
 uuH_13                -2.544246e-03 1 1  ON 105
 uuH_14                -8.661673e-03 1 1  ON 106
 uuH_15                 2.887889e-03 1 1  ON 107
 uuH_16                -3.813214e-05 1 1  ON 108
 uuH_17                 3.335567e-03 1 1  ON 109
 uuH_18                 5.548452e-03 1 1  ON 110
 uuH_19                -4.498698e-03 1 1  ON 111
 uuH_20                -3.907607e-03 1 1  ON 112
 uuH_21                 9.898571e-03 1 1  ON 113
 uuH_22                -3.730147e-03 1 1  ON 114
 uuH_23                 6.599704e-03 1 1  ON 115
 uuH_24                -7.716803e-03 1 1  ON 116
 uuH_25                 3.937672e-03 1 1  ON 117
  udH_0                -2.563334e-03 1 1  ON 118
  udH_1                 1.689297e-03 1 1  ON 119
  udH_2                 4.827181e-03 1 1  ON 120
  udH_3                -6.650949e-03 1 1  ON 121
  udH_4                -9.667247e-03 1 1  ON 122
  udH_5                -1.022710e-03 1 1  ON 123
  udH_6                 1.374970e-03 1 1  ON 124
  udH_7                 1.667422e-02 1 1  ON 125
  udH_8                 1.863843e-02 1 1  ON 126
  udH_9                 1.889369e-03 1 1  ON 127
 udH_10                -1.031631e-02 1 1  ON 128
 udH_11                 3.191947e-03 1 1  ON 129
 udH_12                -1.450632e-02 1 1  ON 130
 udH_13                 8.084876e-03 1 1  ON 131
 udH_14                 1.665439e-02 1 1  ON 132
 udH_15                -8.772709e-04 1 1  ON 133
 udH_16                -1.512946e-02 1 1  ON 134
 udH_17                 4.612715e-02 1 1  ON 135
 udH_18                -4.986986e-02 1 1  ON 136
 udH_19                 1.967909e-02 1 1  ON 137
 udH_20                 1.263119e-04 1 1  ON 138
 udH_21                 7.880397e-03 1 1  ON 139
 udH_22                -3.835493e-03 1 1  ON 140
 udH_23                -5.114932e-04 1 1  ON 141
 udH_24                -3.561132e-03 1 1  ON 142
 udH_25                 1.393033e-03 1 1  ON 143
  </optVariables>
   Restore the number of walkers to 1, removing 0 walkers.
</opt>
</optimization-report>
  QMC Execution time = 19.19 secs

=========================================================
  Start QMCFixedSampleLinearOptimize
  File Root opt.s050 append = no 
=========================================================
  Skip QMCDriver::putQMCInfo 
  Resetting Properties of the walkers 1 x 14

=========================================================
  Start VMC
  File Root opt.s050 append = no 
=========================================================
Using existing walkers 
  Resetting Properties of the walkers 1 x 14

<vmc function="put">
  qmc_counter=9  my_counter=0
  time step      = 1.5
  blocks         = 100
  steps          = 20
  substeps       = 2
  current        = 0
  target samples = 1.28e+06
  walkers/mpi    = 1

  stepsbetweensamples = 1
  SpinMoves      = no
<parameter name="blocks" condition="int">100</parameter>
<parameter name="blocks_between_recompute" condition="int">0</parameter>
<parameter name="check_properties" condition="int">100</parameter>
<parameter name="checkproperties" condition="int">100</parameter>
<parameter name="current" condition="int">0</parameter>
<parameter name="dmcwalkersperthread" condition="real">1177</parameter>
<parameter name="maxcpusecs" condition="real">3.6e+05</parameter>
<parameter name="record_configs" condition="int">0</parameter>
<parameter name="record_walkers" condition="int">1</parameter>
<parameter name="recordconfigs" condition="int">0</parameter>
<parameter name="recordwalkers" condition="int">1</parameter>
<parameter name="rewind" condition="int">0</parameter>
<parameter name="samples" condition="real">1.28e+06</parameter>
<parameter name="samplesperthread" condition="real">1177</parameter>
<parameter name="spinmass" condition="double">1</parameter>
<parameter name="spinmoves" condition="string">no</parameter>
<parameter name="steps" condition="int">20</parameter>
<parameter name="stepsbetweensamples" condition="int">1</parameter>
<parameter name="store_configs" condition="int">0</parameter>
<parameter name="storeconfigs" condition="int">0</parameter>
<parameter name="sub_steps" condition="int">2</parameter>
<parameter name="substeps" condition="int">2</parameter>
<parameter name="tau" condition="au">1.5</parameter>
<parameter name="time_step" condition="au">1.5</parameter>
<parameter name="timestep" condition="au">1.5</parameter>
<parameter name="use_drift" condition="string">yes</parameter>
<parameter name="usedrift" condition="string">yes</parameter>
<parameter name="walkers" condition="int">1</parameter>
<parameter name="warmup_steps" condition="int">0</parameter>
<parameter name="warmupsteps" condition="int">0</parameter>
  DumpConfig==false Nothing (configurations, state) will be saved.
  Walker Samples are dumped every 1 steps.
</vmc>
    Restarting, cummulative properties:
      energy     = -2.237
      variance   = 0
      r2accepted = 1e-10
      r2proposed = 1e-10
  Set drift_modifier UNR parameter a = 1
  Adding a default LocalEnergyEstimator for the MainEstimator 
 Using QMCCostFunction::QMCCostFunction
  Set drift_modifier UNR parameter a = 1.0000e+00
<optimization-report>
<vmc stage="main" blocks="100">
  Cannot make clones again. Use existing 1 clones
  Initial partition of walkers 0 1 

  Using Particle by Particle moves
  Walker moves with drift
  Total Sample Size   =1280576
  Walker distribution on root = 0 1 
  Using Locality Approximation
===== Memory Usage after the buffer registration =====
Available memory on node 0, free + buffers : 86488 MB
Memory footprint by rank 0 on node 0       : 181 MB
==================================================
  Anonymous Buffer size per walker : 13448 Bytes.
MEMORY increase 0 MB VMC::resetRun
====================================================
  SimpleFixedNodeBranch::finalize after a VMC block
    QMC counter        = 50
    time step          = 1.5
    reference energy   = -2.23714
    reference variance = 0.0213873
====================================================
  Execution time = 3.6187e+00
</vmc>
<opt stage="setup">
  <log>
   Reading configurations from h5FileRoot opt.s050
  QMCCostFunction is created with 1 threads.
  Using Nonlocal PP in Opt: no
   Number of samples loaded to each thread : 1177 
  VMC Eavg = -2.2374e+00
  VMC Evar = 2.1786e-02
  Total weights = 1.2806e+06
  Execution time = 9.4369e-01
  </log>
</opt>
<opt stage="main" walkers="1280576">
  <log>

*****************************************
Building overlap and Hamiltonian matrices
*****************************************

Among totally 144 optimized parameters, largest LM parameter change : 7.1328e-03 at parameter 0

******************************************************************************
Init Cost =  -2.0115e+00    New Cost =  -2.0115e+00  Delta Cost =  -5.7511e-06
******************************************************************************

The new set of parameters is valid. Updating the trial wave function!

*****************************************************************************
Applying the update for shift_i =   1.0000e-02     and shift_s =   6.2500e-02
*****************************************************************************
  Execution time = 5.7102e+00
  </log>
  <optVariables href="opt.s050.opt.xml">
   uu_0                 3.781065e-01 1 1  ON 0
   uu_1                 4.622560e-01 1 1  ON 1
   uu_2                 3.370883e-01 1 1  ON 2
   uu_3                 2.483623e-01 1 1  ON 3
   uu_4                 1.876579e-01 1 1  ON 4
   uu_5                 1.429986e-01 1 1  ON 5
   uu_6                 9.903742e-02 1 1  ON 6
   uu_7                 5.792153e-02 1 1  ON 7
   uu_8                 2.205450e-02 1 1  ON 8
   uu_9                -7.599515e-03 1 1  ON 9
   ud_0                 7.834943e-01 1 1  ON 10
   ud_1                 4.412321e-01 1 1  ON 11
   ud_2                 2.533057e-01 1 1  ON 12
   ud_3                 1.657134e-01 1 1  ON 13
   ud_4                 1.211028e-01 1 1  ON 14
   ud_5                 8.744848e-02 1 1  ON 15
   ud_6                 5.151835e-02 1 1  ON 16
   ud_7                 1.705951e-02 1 1  ON 17
   ud_8                -9.965352e-03 1 1  ON 18
   ud_9                -2.888522e-02 1 1  ON 19
  eBe_0                -2.925794e-01 1 1  ON 20
  eBe_1                -2.085110e-01 1 1  ON 21
  eBe_2                -2.078633e-01 1 1  ON 22
  eBe_3                -1.524639e-01 1 1  ON 23
  eBe_4                -8.933503e-02 1 1  ON 24
  eBe_5                -7.134454e-02 1 1  ON 25
  eBe_6                -3.225207e-02 1 1  ON 26
  eBe_7                 4.970298e-02 1 1  ON 27
  eBe_8                 1.509627e-01 1 1  ON 28
  eBe_9                 1.906947e-01 1 1  ON 29
   eH_0                -3.767628e-01 1 1  ON 30
   eH_1                -3.266581e-01 1 1  ON 31
   eH_2                -2.938140e-01 1 1  ON 32
   eH_3                -2.405042e-01 1 1  ON 33
   eH_4                -1.953851e-01 1 1  ON 34
   eH_5                -1.454491e-01 1 1  ON 35
   eH_6                -1.065702e-01 1 1  ON 36
   eH_7                -4.625002e-02 1 1  ON 37
   eH_8                 4.152868e-03 1 1  ON 38
   eH_9                 4.996804e-02 1 1  ON 39
 uuBe_0                -2.628483e-03 1 1  ON 40
 uuBe_1                 3.622929e-03 1 1  ON 41
 uuBe_2                 2.661716e-03 1 1  ON 42
 uuBe_3                 2.292246e-03 1 1  ON 43
 uuBe_4                 3.210539e-03 1 1  ON 44
 uuBe_5                 1.383818e-03 1 1  ON 45
 uuBe_6                -2.128500e-03 1 1  ON 46
 uuBe_7                 2.343988e-02 1 1  ON 47
 uuBe_8                 4.082875e-03 1 1  ON 48
 uuBe_9                -3.607560e-03 1 1  ON 49
uuBe_10                 5.745751e-03 1 1  ON 50
uuBe_11                -1.350109e-02 1 1  ON 51
uuBe_12                 2.020367e-03 1 1  ON 52
uuBe_13                -6.208845e-03 1 1  ON 53
uuBe_14                 5.019361e-03 1 1  ON 54
uuBe_15                -1.438308e-03 1 1  ON 55
uuBe_16                -1.233817e-03 1 1  ON 56
uuBe_17                 9.800425e-03 1 1  ON 57
uuBe_18                -3.257297e-02 1 1  ON 58
uuBe_19                 6.647381e-03 1 1  ON 59
uuBe_20                 1.272410e-02 1 1  ON 60
uuBe_21                 1.259945e-02 1 1  ON 61
uuBe_22                -3.093168e-03 1 1  ON 62
uuBe_23                -1.010676e-02 1 1  ON 63
uuBe_24                -6.388295e-03 1 1  ON 64
uuBe_25                 1.891920e-03 1 1  ON 65
 udBe_0                -1.029281e-02 1 1  ON 66
 udBe_1                 1.090645e-03 1 1  ON 67
 udBe_2                 6.063357e-03 1 1  ON 68
 udBe_3                -1.402055e-03 1 1  ON 69
 udBe_4                -1.116196e-02 1 1  ON 70
 udBe_5                -1.432694e-03 1 1  ON 71
 udBe_6                 3.776600e-03 1 1  ON 72
 udBe_7                 6.097554e-02 1 1  ON 73
 udBe_8                -4.099437e-03 1 1  ON 74
 udBe_9                -1.274958e-03 1 1  ON 75
udBe_10                -9.243632e-03 1 1  ON 76
udBe_11                -3.682075e-03 1 1  ON 77
udBe_12                 1.744315e-03 1 1  ON 78
udBe_13                -5.038717e-03 1 1  ON 79
udBe_14                 7.954601e-03 1 1  ON 80
udBe_15                -2.290322e-03 1 1  ON 81
udBe_16                -1.544532e-05 1 1  ON 82
udBe_17                 2.081943e-02 1 1  ON 83
udBe_18                -4.468239e-02 1 1  ON 84
udBe_19                 5.907978e-03 1 1  ON 85
udBe_20                 3.738365e-03 1 1  ON 86
udBe_21                 1.148098e-02 1 1  ON 87
udBe_22                -1.914315e-03 1 1  ON 88
udBe_23                -3.824288e-03 1 1  ON 89
udBe_24                -5.240381e-03 1 1  ON 90
udBe_25                 1.202101e-03 1 1  ON 91
  uuH_0                -1.941893e-03 1 1  ON 92
  uuH_1                 2.852588e-03 1 1  ON 93
  uuH_2                 1.587775e-03 1 1  ON 94
  uuH_3                -2.475272e-03 1 1  ON 95
  uuH_4                 3.692834e-03 1 1  ON 96
  uuH_5                 6.528109e-03 1 1  ON 97
  uuH_6                -7.020637e-03 1 1  ON 98
  uuH_7                -8.216313e-03 1 1  ON 99
  uuH_8                 1.018332e-02 1 1  ON 100
  uuH_9                 4.747618e-03 1 1  ON 101
 uuH_10                 2.638823e-03 1 1  ON 102
 uuH_11                -1.383151e-04 1 1  ON 103
 uuH_12                -1.249442e-03 1 1  ON 104
 uuH_13                -2.087576e-03 1 1  ON 105
 uuH_14                -8.394186e-03 1 1  ON 106
 uuH_15                 3.130059e-03 1 1  ON 107
 uuH_16                -4.149960e-04 1 1  ON 108
 uuH_17                 2.668854e-03 1 1  ON 109
 uuH_18                 5.103330e-03 1 1  ON 110
 uuH_19                -5.308782e-03 1 1  ON 111
 uuH_20                -4.160381e-03 1 1  ON 112
 uuH_21                 1.033970e-02 1 1  ON 113
 uuH_22                -3.711967e-03 1 1  ON 114
 uuH_23                 6.828522e-03 1 1  ON 115
 uuH_24                -7.349693e-03 1 1  ON 116
 uuH_25                 3.968273e-03 1 1  ON 117
  udH_0                -2.571269e-03 1 1  ON 118
  udH_1                 1.659702e-03 1 1  ON 119
  udH_2                 4.842279e-03 1 1  ON 120
  udH_3                -6.614578e-03 1 1  ON 121
  udH_4                -9.656991e-03 1 1  ON 122
  udH_5                -1.020936e-03 1 1  ON 123
  udH_6                 1.333240e-03 1 1  ON 124
  udH_7                 1.644242e-02 1 1  ON 125
  udH_8                 1.865220e-02 1 1  ON 126
  udH_9                 1.929748e-03 1 1  ON 127
 udH_10                -1.028011e-02 1 1  ON 128
 udH_11                 3.377489e-03 1 1  ON 129
 udH_12                -1.463797e-02 1 1  ON 130
 udH_13                 8.100224e-03 1 1  ON 131
 udH_14                 1.666334e-02 1 1  ON 132
 udH_15                -8.445504e-04 1 1  ON 133
 udH_16                -1.510660e-02 1 1  ON 134
 udH_17                 4.623333e-02 1 1  ON 135
 udH_18                -5.031200e-02 1 1  ON 136
 udH_19                 2.002970e-02 1 1  ON 137
 udH_20                -7.964098e-06 1 1  ON 138
 udH_21                 8.037357e-03 1 1  ON 139
 udH_22                -3.958190e-03 1 1  ON 140
 udH_23                -3.855562e-04 1 1  ON 141
 udH_24                -3.667523e-03 1 1  ON 142
 udH_25                 1.446975e-03 1 1  ON 143
  </optVariables>
   Restore the number of walkers to 1, removing 0 walkers.
</opt>
</optimization-report>
  QMC Execution time = 5.735 secs
  Total Execution time = 337.8 secs

=========================================================
  A new xml input file : opt.s050.cont.xml
