----- GAMESS execution script 'rungms' -----
This job is running on host nid02418
under operating system Linux at Tue Aug 25 07:49:41 PDT 2020
Slurm has assigned the following compute nodes to this run:
nid02418
Available scratch disk space (Kbyte units) at beginning of the job is
Filesystem                                                 1K-blocks           Used      Available Use% Mounted on
10.100.104.4@o2ib4000:10.101.104.5@o2ib4001:/snx11168 29531080226208 16801317264844 12431568298716  58% /global/cscratch1
GAMESS temporary binary files will be written to /global/cscratch1/sd/haihan/gamess_33745725
GAMESS supplementary output files will be written to /global/cscratch1/sd/haihan/gamess_33745725
Copying input file scf.inp to your run's scratch directory...
          ******************************************************
          *         GAMESS VERSION = 30 SEP 2019 (R2)          *
          *             FROM IOWA STATE UNIVERSITY             *
          * M.W.SCHMIDT, K.K.BALDRIDGE, J.A.BOATZ, S.T.ELBERT, *
          *   M.S.GORDON, J.H.JENSEN, S.KOSEKI, N.MATSUNAGA,   *
          *          K.A.NGUYEN, S.J.SU, T.L.WINDUS,           *
          *       TOGETHER WITH M.DUPUIS, J.A.MONTGOMERY       *
          *         J.COMPUT.CHEM.  14, 1347-1363(1993)        *
          **************** 64 BIT LINUX VERSION ****************

  SINCE 1993, STUDENTS AND POSTDOCS WORKING AT IOWA STATE UNIVERSITY
  AND ALSO IN THEIR VARIOUS JOBS AFTER LEAVING ISU HAVE MADE IMPORTANT
  CONTRIBUTIONS TO THE CODE:
     IVANA ADAMOVIC, CHRISTINE AIKENS, YURI ALEXEEV, POOJA ARORA,
     ANDREY ASADCHEV, ROB BELL, PRADIPTA BANDYOPADHYAY, JONATHAN BENTZ,
     COLLEEN BERTONI, BRETT BODE, KURT BRORSEN, CALEB CARLIN, GALINA CHABAN,
     WEI CHEN, CHEOL HO CHOI, PAUL DAY, ALBERT DEFUSCO, NUWAN DESILVA,
     TIM DUDLEY, DMITRI FEDOROV, ALEX FINDLATER, GRAHAM FLETCHER, 
     MARK FREITAG, KURT GLAESEMANN, EMILIE B GUIDEZ, ANASTASIA GUNINA, 
     DAN KEMP, SAROM SOK LEANG, GRANT MERRILL,
     NORIYUKI MINEZAWA, JONATHAN MULLIN,
     TAKESHI NAGATA, SEAN NEDD, HEATHER NETZLOFF, BOSILJKA NJEGIC, RYAN OLSON,
     MIKE PAK, BUU PHAM, DAVID POOLE,
     SPENCER PRUITT, LUKE ROSKOP, TOSAPORN SATTASATHUCHANA,
     JIM SHOEMAKER, LYUDMILA SLIPCHENKO,
     TONY SMITH, JIE SONG, TETSUYA TAKETSUGU, SIMON WEBB,
     JORGE LUIS GALVEZ VALLEJO, PENG XU, SOOHAENG YOO,
     FEDERICO ZAHARIEV

  ADDITIONAL CODE HAS BEEN PROVIDED BY COLLABORATORS IN OTHER GROUPS:
     IOWA STATE UNIVERSITY:
          JOE IVANIC, AARON WEST, LAIMUTIS BYTAUTAS, KLAUS RUEDENBERG
     UNIVERSITY OF TOKYO: KIMIHIKO HIRAO, TAKAHITO NAKAJIMA,
          TAKAO TSUNEDA, MUNEAKI KAMIYA, SUSUMU YANAGISAWA,
          KIYOSHI YAGI, MAHITO CHIBA, SEIKEN TOKURA, NAOAKI KAWAKAMI
     UNIVERSITY OF AARHUS: FRANK JENSEN
     UNIVERSITY OF IOWA: VISVALDAS KAIRYS, HUI LI
     NATIONAL INST. OF STANDARDS AND TECHNOLOGY: WALT STEVENS, DAVID GARMER
     UNIVERSITY OF PISA: BENEDETTA MENNUCCI, JACOPO TOMASI
     UNIVERSITY OF MEMPHIS: HENRY KURTZ, PRAKASHAN KORAMBATH
     UNIVERSITY OF ALBERTA: TOBY ZENG, MARIUSZ KLOBUKOWSKI
     UNIVERSITY OF NEW ENGLAND: MARK SPACKMAN
     MIE UNIVERSITY: HIROAKI UMEDA
     NAT. INST. OF ADVANCED INDUSTRIAL SCIENCE AND TECHNOLOGY: KAZUO KITAURA
     MICHIGAN STATE UNIVERSITY:
          KAROL KOWALSKI, MARTA WLOCH, JEFFREY GOUR, JESSE LUTZ,
          WEI LI, JUN SHEN, J. EMILIANO DEUSTUA, PIOTR PIECUCH
     UNIVERSITY OF MINNESOTA:
          ANDREW SAND, PRACHI SHARMA, YINAN SHU
     UNIVERSITY OF SILESIA: MONIKA MUSIAL, STANISLAW KUCHARSKI
     FACULTES UNIVERSITAIRES NOTRE-DAME DE LA PAIX:
          OLIVIER QUINET, BENOIT CHAMPAGNE
     UNIVERSITY OF CALIFORNIA - SANTA BARBARA: BERNARD KIRTMAN
     INSTITUTE FOR MOLECULAR SCIENCE:
          KAZUYA ISHIMURA, MICHIO KATOUDA, AND SHIGERU NAGASE
     UNIVERSITY OF NOTRE DAME: ANNA POMOGAEVA, DAN CHIPMAN
     KYUSHU UNIVERSITY:
          HARUYUKI NAKANO,
          FENG LONG GU, JACEK KORCHOWIEC, MARCIN MAKOWSKI, AND YURIKO AOKI,
          HIROTOSHI MORI AND EISAKU MIYOSHI
     PENNSYLVANIA STATE UNIVERSITY:
          TZVETELIN IORDANOV, CHET SWALINA, JONATHAN SKONE,
          SHARON HAMMES-SCHIFFER
     WASEDA UNIVERSITY:
          MASATO KOBAYASHI, TOMOKO AKAMA, TSUGUKI TOUMA,
          TAKESHI YOSHIKAWA, YASUHIRO IKABATA, JUNJI SEINO,
          YUYA NAKAJIMA, HIROMI NAKAI
     NANJING UNIVERSITY: SHUHUA LI
     UNIVERSITY OF NEBRASKA:
          PEIFENG SU, DEJUN SI, NANDUN THELLAMUREGE, YALI WANG, HUI LI
     UNIVERSITY OF ZURICH: ROBERTO PEVERATI, KIM BALDRIDGE
     N. COPERNICUS UNIVERSITY AND JACKSON STATE UNIVERSITY:
          MARIA BARYSZ
     UNIVERSITY OF COPENHAGEN: Jimmy Kromann, CASPER STEINMANN
     TOKYO INSTITUTE OF TECHNOLOGY: HIROYA NAKATA
     NAGOYA UNIVERSITY: YOSHIO NISHIMOTO, STEPHAN IRLE
     MOSCOW STATE UNIVERSITY: VLADIMIR MIRONOV
     A.N.NESMEYANOV INSTITUTE OF ORGANOELEMENT COMPOUNDS OF RUSSIAN ACADEMY OF SCIENCES:
          IGOR S. GERASIMOV
     JOHANNES KEPLER UNIVERSITY LINZ:
          CHRISTIAN FRIEDL


 PARALLEL VERSION RUNNING ON        4 PROCESSORS IN        1 NODES.

 EXECUTION OF GAMESS BEGUN Tue Aug 25 07:49:51 2020

            ECHO OF THE FIRST FEW INPUT CARDS -
 INPUT CARD> $CONTRL                                                                        
 INPUT CARD>     SCFTYP=RHF                                                                 
 INPUT CARD>     MULT=1                                                                     
 INPUT CARD>     ICHARG=0                                                                   
 INPUT CARD>     RUNTYP=energy                                                              
 INPUT CARD>     MAXIT=200                                                                  
 INPUT CARD>     PP=READ                                                                    
 INPUT CARD>     UNITS=ANGS                                                                 
 INPUT CARD> $END                                                                           
 INPUT CARD>                                                                                
 INPUT CARD> $SYSTEM                                                                        
 INPUT CARD>    MWORDS=1000                                                                 
 INPUT CARD>    MEMDDI=1000                                                                 
 INPUT CARD> $END                                                                           
 INPUT CARD>                                                                                
 INPUT CARD> $GUESS                                                                         
 INPUT CARD>     GUESS=MOREAD                                                               
 INPUT CARD>     NORB=211                                                                   
 INPUT CARD>     NORDER=1                                                                   
 INPUT CARD>     IORDER(1)=2                                                                
 INPUT CARD>     IORDER(2)=1                                                                
 INPUT CARD>     IORDER(3)=162                                                              
 INPUT CARD>     IORDER(4)=210                                                              
 INPUT CARD>     IORDER(5)=211                                                              
 INPUT CARD>     IORDER(6)=82                                                               
 INPUT CARD>     IORDER(82)=6                                                               
 INPUT CARD>     IORDER(211)=5                                                              
 INPUT CARD>     IORDER(210)=4                                                              
 INPUT CARD>     IORDER(162)=3                                                              
 INPUT CARD> $END                                                                           
 INPUT CARD>                                                                                
 INPUT CARD> $SCF DAMP=.T. SOSCF=.F. SHIFT=.T. RSTRCT=.T. DIIS=.T.  $END                    
 INPUT CARD>                                                                                
 INPUT CARD>                                                                                
 INPUT CARD>! $MCSCF                                                                        
 INPUT CARD>!      CISTEP=GUGA                                                              
 INPUT CARD>! $END                                                                          
 INPUT CARD>                                                                                
 INPUT CARD>! $CIDRT                                                                        
 INPUT CARD>!      NPRT=2                                                                   
 INPUT CARD>!      NFZC=0                                                                   
 INPUT CARD>!      NDOC=4                                                                   
 INPUT CARD>! !     NAOS=1                                                                  
 INPUT CARD>! !     NBOS=1                                                                  
 INPUT CARD>!      NVAL=30                                                                  
 INPUT CARD>!      IEXCIT=1                                                                 
 INPUT CARD>!      GROUP=C1                                                                 
 INPUT CARD>! $END                                                                          
 INPUT CARD>!                                                                               
 INPUT CARD>! $GUGDIA NSTATE=2 $END                                                         
 1000000000 WORDS OF MEMORY AVAILABLE


     RUN TITLE
     ---------
 BeH2 calculation                                                                

 THE POINT GROUP OF THE MOLECULE IS C1      
 THE ORDER OF THE PRINCIPAL AXIS IS     0

 ATOM      ATOMIC                      COORDINATES (BOHR)
           CHARGE         X                   Y                   Z
 BE          4.0     0.0000000000        0.0000000000        0.0000000000
 H           1.0     0.0000000000        0.0000000000        2.5065325501
 H           1.0     0.0000000000        0.0000000000       -2.5065325501

          INTERNUCLEAR DISTANCES (ANGS.)
          ------------------------------

                1 BE         2 H          3 H     

   1 BE      0.0000000    1.3264000 *  1.3264000 *
   2 H       1.3264000 *  0.0000000    2.6528000 *
   3 H       1.3264000 *  2.6528000 *  0.0000000  

  * ... LESS THAN  3.000


     ATOMIC BASIS SET
     ----------------
 THE CONTRACTED PRIMITIVE FUNCTIONS HAVE BEEN UNNORMALIZED
 THE CONTRACTED BASIS FUNCTIONS ARE NOW NORMALIZED TO UNITY

  SHELL TYPE  PRIMITIVE        EXPONENT          CONTRACTION COEFFICIENT(S)

 BE        

      1   S       1            15.9658770    0.000689999755
      1   S       2             7.3673610   -0.000376999866
      1   S       3             3.3996260    0.024068991438
      1   S       4             1.5687380   -0.111988960163
      1   S       5             0.7238850   -0.076441972808
      1   S       6             0.3340320    0.135743951713
      1   S       7             0.1541370    0.418514851126
      1   S       8             0.0711260    0.462923835329
      1   S       9             0.0328210    0.128265954373

      2   P      10            16.5549420    0.000340999822
      2   P      11             7.5260500    0.003227998312
      2   P      12             3.4214210    0.017659990768
      2   P      13             1.5554140    0.038663979788
      2   P      14             0.7071080    0.098638948434
      2   P      15             0.3214580    0.231258879104
      2   P      16             0.1461380    0.387108797630
      2   P      17             0.0664360    0.339447822546
      2   P      18             0.0302030    0.089101953420

      3   S      19             1.3328870    1.000000000000

      4   S      20             0.2455090    1.000000000000

      5   S      21             0.0452210    1.000000000000

      6   S      22             0.0180880    1.000000000000

      7   P      23             2.4536230    1.000000000000

      8   P      24             0.6839990    1.000000000000

      9   P      25             0.1906790    1.000000000000

     10   P      26             0.0762720    1.000000000000

     11   D      27             0.9840980    1.000000000000

     12   D      28             0.4085100    1.000000000000

     13   D      29             0.1695770    1.000000000000

     14   D      30             0.0678310    1.000000000000

     15   F      31             0.4770340    1.000000000000

     16   F      32             0.2379710    1.000000000000

     17   F      33             0.0951880    1.000000000000

     18   G      34             0.4220450    1.000000000000

     19   G      35             0.1688180    1.000000000000

 H         

     20   S      36            23.8431850    0.004114899701
     20   S      37            10.2124430    0.010464399240
     20   S      38             4.3741640    0.028011097966
     20   S      39             1.8735290    0.075886194491
     20   S      40             0.8024650    0.182106186780
     20   S      41             0.3437090    0.348521374698
     20   S      42             0.1472170    0.378231272542
     20   S      43             0.0630550    0.116424091548

     21   S      44             0.0287260    1.000000000000

     22   S      45             0.0818560    1.000000000000

     23   S      46             0.2332540    1.000000000000

     24   S      47             0.6646730    1.000000000000

     25   P      48             0.0955220    1.000000000000

     26   P      49             0.2844690    1.000000000000

     27   P      50             0.8471590    1.000000000000

     28   P      51             2.5228680    1.000000000000

     29   D      52             0.2160330    1.000000000000

     30   D      53             0.6652790    1.000000000000

     31   D      54             2.0487390    1.000000000000

     32   F      55             0.4446470    1.000000000000

     33   F      56             1.4214600    1.000000000000

 H         

     34   S      57            23.8431850    0.004114899701
     34   S      58            10.2124430    0.010464399240
     34   S      59             4.3741640    0.028011097966
     34   S      60             1.8735290    0.075886194491
     34   S      61             0.8024650    0.182106186780
     34   S      62             0.3437090    0.348521374698
     34   S      63             0.1472170    0.378231272542
     34   S      64             0.0630550    0.116424091548

     35   S      65             0.0287260    1.000000000000

     36   S      66             0.0818560    1.000000000000

     37   S      67             0.2332540    1.000000000000

     38   S      68             0.6646730    1.000000000000

     39   P      69             0.0955220    1.000000000000

     40   P      70             0.2844690    1.000000000000

     41   P      71             0.8471590    1.000000000000

     42   P      72             2.5228680    1.000000000000

     43   D      73             0.2160330    1.000000000000

     44   D      74             0.6652790    1.000000000000

     45   D      75             2.0487390    1.000000000000

     46   F      76             0.4446470    1.000000000000

     47   F      77             1.4214600    1.000000000000

 TOTAL NUMBER OF BASIS SET SHELLS             =   47
 NUMBER OF CARTESIAN GAUSSIAN BASIS FUNCTIONS =  214
 NUMBER OF ELECTRONS                          =    6
 CHARGE OF MOLECULE                           =    0
 SPIN MULTIPLICITY                            =    1
 NUMBER OF OCCUPIED ORBITALS (ALPHA)          =    3
 NUMBER OF OCCUPIED ORBITALS (BETA )          =    3
 TOTAL NUMBER OF ATOMS                        =    3
 THE NUCLEAR REPULSION ENERGY IS        3.3911388861
 NOTE THIS RUN IS USING CORE POTENTIALS, AND THE NUMBER OF ELECTRONS,
 OCCUPIED ORBITALS, AND NUCLEAR REPULSION ENERGY WILL BE ADJUSTED BELOW
 AFTER REMOVAL OF THE CORE CHARGES.

 THIS MOLECULE IS RECOGNIZED AS BEING LINEAR,
 ORBITAL LZ DEGENERACY TOLERANCE ETOLLZ= 1.00E-06

     $CONTRL OPTIONS
     ---------------
 SCFTYP=RHF          RUNTYP=ENERGY       EXETYP=RUN     
 MPLEVL=       0     CITYP =NONE         CCTYP =NONE         VBTYP =NONE    
 DFTTYP=NONE         TDDFT =NONE    
 MULT  =       1     ICHARG=       0     NZVAR =       0     COORD =UNIQUE  
 PP    =READ         RELWFN=NONE         LOCAL =NONE         NUMGRD=       F
 ISPHER=      -1     NOSYM =       0     MAXIT =     200     UNITS =ANGS    
 PLTORB=       F     MOLPLT=       F     AIMPAC=       F     FRIEND=        
 NPRINT=       7     IREST =       0     GEOM  =INPUT   
 NORMF =       0     NORMP =       0     ITOL  =      20     ICUT  =       9
 INTTYP=BEST         GRDTYP=BEST         QMTTOL= 1.0E-06

     $SYSTEM OPTIONS
     ---------------
  REPLICATED MEMORY=  1000000000 WORDS (ON EVERY NODE).
 DISTRIBUTED MEMDDI=        1000 MILLION WORDS IN AGGREGATE,
 MEMDDI DISTRIBUTED OVER   4 PROCESSORS IS   250000000 WORDS/PROCESSOR.
 TOTAL MEMORY REQUESTED ON EACH PROCESSOR=  1250000000 WORDS.
 TIMLIM=      525600.00 MINUTES, OR     365.0 DAYS.
 PARALL= T  BALTYP=  DLB     KDIAG=    0  COREFL= F
 MXSEQ2=     300 MXSEQ3=     150  mem10=         0

          --------------
          ECP POTENTIALS
          --------------

 PARAMETERS FOR "BE-CCECP" ON ATOM    1 WITH ZCORE   2 AND LMAX  1 ARE
 FOR L= 1      COEFF    N           ZETA
    1        2.00000    1       17.94900
    2       35.89800    3       24.13200
    3      -12.77500    2       20.13800
    4       -2.96001    2        4.33317
 FOR L= 0      COEFF    N           ZETA
    1       12.66392    2        2.48740

 PARAMETERS FOR "H-CCECP " ON ATOM    2 WITH ZCORE   0 AND LMAX  1 ARE
 FOR L= 1      COEFF    N           ZETA
    1        1.00000    1       21.24360
    2       21.24360    3       21.24360
    3      -10.85192    2       21.77697
 FOR L= 0      COEFF    N           ZETA
    1        0.00000    2        1.00000

 PARAMETERS FOR "H-CCECP " ON ATOM    3 ARE THE SAME AS ATOM   2

 THE ECP RUN REMOVES    2 CORE ELECTRONS, AND THE SAME NUMBER OF PROTONS.
 NUMBER OF ELECTRONS KEPT IN THE CALCULATION IS =    4
 NUMBER OF OCCUPIED ORBITALS (ALPHA) KEPT IS    =    2
 NUMBER OF OCCUPIED ORBITALS (BETA ) KEPT IS    =    2
 THE ADJUSTED NUCLEAR REPULSION ENERGY=        1.7953088221
          ECP ANGULAR INTS.........     0.07 SECONDS

          ----------------
          PROPERTIES INPUT
          ----------------

     MOMENTS            FIELD           POTENTIAL          DENSITY
 IEMOM =       1   IEFLD =       0   IEPOT =       0   IEDEN =       0
 WHERE =COMASS     WHERE =NUCLEI     WHERE =NUCLEI     WHERE =NUCLEI  
 OUTPUT=BOTH       OUTPUT=BOTH       OUTPUT=BOTH       OUTPUT=BOTH    
 IEMINT=       0   IEFINT=       0                     IEDINT=       0
                                                       MORB  =       0
          EXTRAPOLATION IN EFFECT
          DAMPING IN EFFECT
          LEVEL SHIFTING IN EFFECT
          RESTRICTION OF ORBITAL MIXING IN EFFECT
          DIIS IN EFFECT
 ORBITAL PRINTING OPTION: NPREO=     1   214     2     1

     -------------------------------
     INTEGRAL TRANSFORMATION OPTIONS
     -------------------------------
     NWORD  =            0
     CUTOFF = 1.0E-09     MPTRAN =       0
     DIRTRF =       F     AOINTS =DUP     

          ----------------------
          INTEGRAL INPUT OPTIONS
          ----------------------
 NOPK  =       1 NORDER=       0 SCHWRZ=       F

     ------------------------------------------
     THE POINT GROUP IS C1 , NAXIS= 0, ORDER= 1
     ------------------------------------------

     DIMENSIONS OF THE SYMMETRY SUBSPACES ARE
 A   =  214

 ..... DONE SETTING UP THE RUN .....
 CPU     0: STEP CPU TIME=     1.74 TOTAL CPU TIME=          1.7 (      0.0 MIN)
 TOTAL WALL CLOCK TIME=          2.0 SECONDS, CPU UTILIZATION IS    86.14%

          ********************
          1 ELECTRON INTEGRALS
          ********************
 TIME TO DO ORDINARY INTEGRALS=      0.20
 TIME TO DO      ECP INTEGRALS=      0.16
 ...... END OF ONE-ELECTRON INTEGRALS ......
 CPU     0: STEP CPU TIME=     0.40 TOTAL CPU TIME=          2.1 (      0.0 MIN)
 TOTAL WALL CLOCK TIME=          2.5 SECONDS, CPU UTILIZATION IS    86.29%

          -------------
          GUESS OPTIONS
          -------------
          GUESS =MOREAD            NORB  =     211          NORDER=       1
          MIX   =       F          PRTMO =       F          PUNMO =       F
          TOLZ  = 1.0E-08          TOLE  = 1.0E-05
          SYMDEN=       F          PURIFY=       F

 INITIAL GUESS ORBITALS GENERATED BY MOREAD   ROUTINE.

 STATISTICS FOR GENERATION OF SYMMETRY ORBITAL -Q- MATRIX
 NUMBER OF CARTESIAN ATOMIC ORBITALS=        214
 NUMBER OF SPHERICAL CONTAMINANTS DROPPED=     0
 NUMBER OF LINEARLY DEPENDENT MOS DROPPED=     3
 TOTAL NUMBER OF MOS IN VARIATION SPACE=     211

 ...WARNING (SYMORB.SRC)...
 THE INPUT BASIS SET CONTAINS APPROXIMATE LINEAR DEPENDENCE.
 THE SMALLEST EIGENVALUE OF THE OVERLAP MATRIX IS   3.649308E-07
 THERE ARE    3 EIGENVALUES LESS THAN QMTTOL=  1.00E-06
 EIGENVECTORS BELOW -QMTTOL- ARE DROPPED FROM THE MO SPACE,
 IN ORDER TO ELIMINATE THE APPROXIMATE LINEAR DEPENDENCE.

 THIS WILL MOST LIKELY CHANGE THE ENERGY ON THE ORDER OF TENS OF MICROHARTREES,
 DEPENDING ON THE NUMBER OF ORBITALS REMOVED.  THE VALUE OF QMTTOL CAN BE 
 CHANGED IN $CONTRL: JOBS WITH EIGENVALUES BELOW 1.0E-07 PROBABLY WON'T
 CONVERGE.  EIGENVALUES BETWEEN 1.0E-07 AND 1.0E-06 MAY REQUIRE LOOSENING OF
 THE DENSITY CRITERION (CONV IN $SCF), MORE ACCURATE INTEGRAL EVALUATION
 (ICUT=11 IN $CONTRL), MORE ACCURATE DIRECT SCF FOCK MATRIX
 CONSTRUCTION (FDIFF=.FALSE. IN $SCF), OR CHANGING THE SCF CONVERGER
 (DIIS=.TRUE. IN $SCF).

                    * * * * * WARNING * * * * *
 POSSIBLE LINEAR DEPENDENCE PROBLEMS DETECTED, INPUT QMTTOL= 1.0E-06,
 WITH     5 OVERLAP EIGENVALUES LYING BETWEEN 1.0E-05 AND QMTTOL.
 IF YOU EXPERIENCE SCF CONVERGENCE DIFFICULTIES WITH THE DENSITY ALMOST BUT
 NOT QUITE CONVERGED, YOU MAY NEED TO LOOSEN -QMTTOL- BY A FACTOR 5 TO 10.

 SYMMETRIES FOR INITIAL GUESS ORBITALS FOLLOW.   BOTH SET(S).
     2 ORBITALS ARE OCCUPIED (    0 CORE ORBITALS).
     1=A        2=A        3=A        4=A        5=A        6=A        7=A   
     8=A        9=A       10=A       11=A       12=A       13=A       14=A   
    15=A       16=A       17=A       18=A       19=A       20=A       21=A   
    22=A       23=A       24=A       25=A       26=A       27=A       28=A   
    29=A       30=A       31=A       32=A       33=A       34=A       35=A   
    36=A       37=A       38=A       39=A       40=A       41=A       42=A   
    43=A       44=A       45=A       46=A       47=A       48=A       49=A   
    50=A       51=A       52=A       53=A       54=A       55=A       56=A   
    57=A       58=A       59=A       60=A       61=A       62=A       63=A   
    64=A       65=A       66=A       67=A       68=A       69=A       70=A   
    71=A       72=A       73=A       74=A       75=A       76=A       77=A   
    78=A       79=A       80=A       81=A       82=A       83=A       84=A   
    85=A       86=A       87=A       88=A       89=A       90=A       91=A   
    92=A       93=A       94=A       95=A       96=A       97=A       98=A   
    99=A      100=A      101=A      102=A      103=A      104=A      105=A   
   106=A      107=A      108=A      109=A      110=A      111=A      112=A   
   113=A      114=A      115=A      116=A      117=A      118=A      119=A   
   120=A      121=A      122=A      123=A      124=A      125=A      126=A   
   127=A      128=A      129=A      130=A      131=A      132=A      133=A   
   134=A      135=A      136=A      137=A      138=A      139=A      140=A   
   141=A      142=A      143=A      144=A      145=A      146=A      147=A   
   148=A      149=A      150=A      151=A      152=A      153=A      154=A   
   155=A      156=A      157=A      158=A      159=A      160=A      161=A   
   162=A      163=A      164=A      165=A      166=A      167=A      168=A   
   169=A      170=A      171=A      172=A      173=A      174=A      175=A   
   176=A      177=A      178=A      179=A      180=A      181=A      182=A   
   183=A      184=A      185=A      186=A      187=A      188=A      189=A   
   190=A      191=A      192=A      193=A      194=A      195=A      196=A   
   197=A      198=A      199=A      200=A      201=A      202=A      203=A   
   204=A      205=A      206=A      207=A      208=A      209=A      210=A   
   211=A   
 ...... END OF INITIAL ORBITAL SELECTION ......
 CPU     0: STEP CPU TIME=     0.59 TOTAL CPU TIME=          2.7 (      0.0 MIN)
 TOTAL WALL CLOCK TIME=          3.3 SECONDS, CPU UTILIZATION IS    82.48%

                    ----------------------
                    AO INTEGRAL TECHNOLOGY
                    ----------------------
     S,P,L SHELL ROTATED AXIS INTEGRALS, REPROGRAMMED BY
        KAZUYA ISHIMURA (IMS) AND JOSE SIERRA (SYNSTAR).
     S,P,D,L SHELL ROTATED AXIS INTEGRALS PROGRAMMED BY
        KAZUYA ISHIMURA (INSTITUTE FOR MOLECULAR SCIENCE).
     S,P,D,F,G SHELL TO TOTAL QUARTET ANGULAR MOMENTUM SUM 5,
        ERIC PROGRAM BY GRAHAM FLETCHER (ELORET AND NASA ADVANCED
        SUPERCOMPUTING DIVISION, AMES RESEARCH CENTER).
     S,P,D,F,G,L SHELL GENERAL RYS QUADRATURE PROGRAMMED BY
        MICHEL DUPUIS (PACIFIC NORTHWEST NATIONAL LABORATORY).

          --------------------
          2 ELECTRON INTEGRALS
          --------------------

 THE -PK- OPTION IS OFF, THE INTEGRALS ARE NOT IN SUPERMATRIX FORM.
 STORING   15000 INTEGRALS/RECORD ON DISK, USING 12 BYTES/INTEGRAL.
 TWO ELECTRON INTEGRAL EVALUATION REQUIRES  140853 WORDS OF MEMORY.
 II,JST,KST,LST =  1  1  1  1 NREC =         1 INTLOC =    1
 II,JST,KST,LST =  2  1  1  1 NREC =         1 INTLOC =    1
 II,JST,KST,LST =  3  1  1  1 NREC =         1 INTLOC =    1
 II,JST,KST,LST =  4  1  1  1 NREC =         1 INTLOC =    8
 II,JST,KST,LST =  5  1  1  1 NREC =         1 INTLOC =   14
 II,JST,KST,LST =  6  1  1  1 NREC =         1 INTLOC =   14
 II,JST,KST,LST =  7  1  1  1 NREC =         1 INTLOC =   20
 II,JST,KST,LST =  8  1  1  1 NREC =         1 INTLOC =  194
 II,JST,KST,LST =  9  1  1  1 NREC =         1 INTLOC =  236
 II,JST,KST,LST = 10  1  1  1 NREC =         1 INTLOC =  257
 II,JST,KST,LST = 11  1  1  1 NREC =         1 INTLOC =  503
 II,JST,KST,LST = 12  1  1  1 NREC =         1 INTLOC = 1226
 II,JST,KST,LST = 13  1  1  1 NREC =         1 INTLOC = 2198
 II,JST,KST,LST = 14  1  1  1 NREC =         1 INTLOC = 9890
 II,JST,KST,LST = 15  1  1  1 NREC =         2 INTLOC = 4277
 II,JST,KST,LST = 16  1  1  1 NREC =         3 INTLOC =10088
 II,JST,KST,LST = 17  1  1  1 NREC =         4 INTLOC =11759
 II,JST,KST,LST = 18  1  1  1 NREC =         6 INTLOC = 8570
 II,JST,KST,LST = 19  1  1  1 NREC =        19 INTLOC = 5003
 II,JST,KST,LST = 20  1  1  1 NREC =        38 INTLOC =12053
 II,JST,KST,LST = 21  1  1  1 NREC =        38 INTLOC =12053
 II,JST,KST,LST = 22  1  1  1 NREC =        42 INTLOC = 9502
 II,JST,KST,LST = 23  1  1  1 NREC =        44 INTLOC =13580
 II,JST,KST,LST = 24  1  1  1 NREC =        46 INTLOC = 9611
 II,JST,KST,LST = 25  1  1  1 NREC =        49 INTLOC = 3242
 II,JST,KST,LST = 26  1  1  1 NREC =        54 INTLOC = 5710
 II,JST,KST,LST = 27  1  1  1 NREC =        62 INTLOC =11712
 II,JST,KST,LST = 28  1  1  1 NREC =        74 INTLOC = 1357
 II,JST,KST,LST = 29  1  1  1 NREC =        83 INTLOC =  960
 II,JST,KST,LST = 30  1  1  1 NREC =       113 INTLOC = 5767
 II,JST,KST,LST = 31  1  1  1 NREC =       134 INTLOC =14391
 II,JST,KST,LST = 32  1  1  1 NREC =       172 INTLOC = 1322
 II,JST,KST,LST = 33  1  1  1 NREC =       240 INTLOC =14719
 II,JST,KST,LST = 34  1  1  1 NREC =       309 INTLOC =13116
 II,JST,KST,LST = 35  1  1  1 NREC =       320 INTLOC =  448
 II,JST,KST,LST = 36  1  1  1 NREC =       334 INTLOC = 1287
 II,JST,KST,LST = 37  1  1  1 NREC =       342 INTLOC = 9443
 II,JST,KST,LST = 38  1  1  1 NREC =       350 INTLOC = 9678
 II,JST,KST,LST = 39  1  1  1 NREC =       358 INTLOC = 1405
 II,JST,KST,LST = 40  1  1  1 NREC =       387 INTLOC = 4412
 II,JST,KST,LST = 41  1  1  1 NREC =       416 INTLOC =11155
 II,JST,KST,LST = 42  1  1  1 NREC =       449 INTLOC =10998
 II,JST,KST,LST = 43  1  1  1 NREC =       478 INTLOC = 5816
 II,JST,KST,LST = 44  1  1  1 NREC =       561 INTLOC = 2657
 II,JST,KST,LST = 45  1  1  1 NREC =       648 INTLOC = 4200
 II,JST,KST,LST = 46  1  1  1 NREC =       707 INTLOC = 1859
 II,JST,KST,LST = 47  1  1  1 NREC =       874 INTLOC = 6126
 TOTAL NUMBER OF NONZERO TWO-ELECTRON INTEGRALS =            63543929
       4239 INTEGRAL RECORDS WERE STORED ON DISK FILE  8.
  ...... END OF TWO-ELECTRON INTEGRALS .....
 CPU     0: STEP CPU TIME=     9.60 TOTAL CPU TIME=         12.3 (      0.2 MIN)
 TOTAL WALL CLOCK TIME=         12.9 SECONDS, CPU UTILIZATION IS    95.36%

          --------------------------
                 RHF SCF CALCULATION
          --------------------------

     NUCLEAR ENERGY =         1.7953088221
     MAXIT =  200     NPUNCH=    2
     EXTRAP=T  DAMP=T  SHIFT=T  RSTRCT=T  DIIS=T  DEM=F  SOSCF=F
     DENSITY MATRIX CONV=  1.00E-05
     MEMORY REQUIRED FOR RHF ITERS=    374208 WORDS.

 ITER EX DEM     TOTAL ENERGY        E CHANGE  DENSITY CHANGE    DIIS ERROR      VIR. SHIFT       DAMPING
          * * *   INITIATING DIIS PROCEDURE   * * *
   1  0  0       -2.1650675802    -2.1650675802   0.000000017   0.000000001     0.000000000     1.000000000
   2  1  0       -2.1650675802     0.0000000000   0.000000002   0.000000000     0.000000000     1.000000000

          -----------------
          DENSITY CONVERGED
          -----------------
     TIME TO FORM FOCK OPERATORS=       1.3 SECONDS (       0.6 SEC/ITER)
     TIME TO SOLVE SCF EQUATIONS=       0.4 SECONDS (       0.2 SEC/ITER)

 FINAL RHF ENERGY IS       -2.1650675802 AFTER   2 ITERATIONS

 LZ VALUE ANALYSIS FOR THE MOS
 ----------------------------------------
 MO     1 (    1) HAS LZ(WEIGHT)= 0.00(100.0%) 
 MO     2 (    2) HAS LZ(WEIGHT)= 0.00(100.0%) 
 MO     3 (    3) HAS LZ(WEIGHT)= 0.00(100.0%) 
 MO     4 (    4) HAS LZ(WEIGHT)=-1.00( 50.0%)  1.00( 50.0%) 
 MO     5 (    4) HAS LZ(WEIGHT)=-1.00( 50.0%)  1.00( 50.0%) 
 MO     6 (    5) HAS LZ(WEIGHT)= 0.00(100.0%) 
 MO     7 (    6) HAS LZ(WEIGHT)= 0.00(100.0%) 
 MO     8 (    7) HAS LZ(WEIGHT)= 0.00(100.0%) 
 MO     9 (    8) HAS LZ(WEIGHT)= 0.00(100.0%) 
 MO    10 (    9) HAS LZ(WEIGHT)= 0.00(100.0%) 
 MO    11 (   10) HAS LZ(WEIGHT)= 0.00(100.0%) 
 MO    12 (   11) HAS LZ(WEIGHT)=-1.00( 50.0%)  1.00( 50.0%) 
 MO    13 (   11) HAS LZ(WEIGHT)=-1.00( 50.0%)  1.00( 50.0%) 
 MO    14 (   12) HAS LZ(WEIGHT)= 0.00(100.0%) 
 MO    15 (   13) HAS LZ(WEIGHT)= 0.00(100.0%) 
 MO    16 (   14) HAS LZ(WEIGHT)= 0.00(100.0%) 
 MO    17 (   15) HAS LZ(WEIGHT)= 0.00(100.0%) 
 MO    18 (   16) HAS LZ(WEIGHT)=-1.00( 50.0%)  1.00( 50.0%) 
 MO    19 (   16) HAS LZ(WEIGHT)=-1.00( 50.0%)  1.00( 50.0%) 
 MO    20 (   17) HAS LZ(WEIGHT)= 0.00(100.0%) 
 MO    21 (   18) HAS LZ(WEIGHT)= 0.00(100.0%) 
 MO    22 (   19) HAS LZ(WEIGHT)= 0.00(100.0%) 
 MO    23 (   20) HAS LZ(WEIGHT)= 0.00(100.0%) 
 MO    24 (   21) HAS LZ(WEIGHT)=-1.00( 50.0%)  1.00( 50.0%) 
 MO    25 (   21) HAS LZ(WEIGHT)=-1.00( 50.0%)  1.00( 50.0%) 
 MO    26 (   22) HAS LZ(WEIGHT)= 0.00(100.0%) 
 MO    27 (   23) HAS LZ(WEIGHT)=-1.00( 50.0%)  1.00( 50.0%) 
 MO    28 (   23) HAS LZ(WEIGHT)=-1.00( 50.0%)  1.00( 50.0%) 
 MO    29 (   24) HAS LZ(WEIGHT)= 0.00(100.0%) 
 MO    30 (   25) HAS LZ(WEIGHT)=-1.00( 50.0%)  1.00( 50.0%) 
 MO    31 (   25) HAS LZ(WEIGHT)=-1.00( 50.0%)  1.00( 50.0%) 
 MO    32 (   26) HAS LZ(WEIGHT)=-1.00( 50.0%)  1.00( 50.0%) 
 MO    33 (   26) HAS LZ(WEIGHT)=-1.00( 50.0%)  1.00( 50.0%) 
 MO    34 (   27) HAS LZ(WEIGHT)= 0.00(100.0%) 
 MO    35 (   28) HAS LZ(WEIGHT)= 0.00(100.0%) 
 MO    36 (   29) HAS LZ(WEIGHT)= 0.00(100.0%) 
 MO    37 (   30) HAS LZ(WEIGHT)=-1.00( 50.0%)  1.00( 50.0%) 
 MO    38 (   30) HAS LZ(WEIGHT)=-1.00( 50.0%)  1.00( 50.0%) 
 MO    39 (   31) HAS LZ(WEIGHT)= 0.00(100.0%) 
 MO    40 (   32) HAS LZ(WEIGHT)= 0.00(100.0%) 
 MO    41 (   33) HAS LZ(WEIGHT)= 0.00(100.0%) 
 MO    42 (   34) HAS LZ(WEIGHT)=-1.00( 50.0%)  1.00( 50.0%) 
 MO    43 (   34) HAS LZ(WEIGHT)=-1.00( 50.0%)  1.00( 50.0%) 
 MO    44 (   35) HAS LZ(WEIGHT)=-1.00( 50.0%)  1.00( 50.0%) 
 MO    45 (   35) HAS LZ(WEIGHT)=-1.00( 50.0%)  1.00( 50.0%) 
 MO    46 (   36) HAS LZ(WEIGHT)= 0.00(100.0%) 
 MO    47 (   37) HAS LZ(WEIGHT)= 0.00(100.0%) 
 MO    48 (   38) HAS LZ(WEIGHT)= 0.00(100.0%) 
 MO    49 (   39) HAS LZ(WEIGHT)=-1.00( 50.0%)  1.00( 50.0%) 
 MO    50 (   39) HAS LZ(WEIGHT)=-1.00( 50.0%)  1.00( 50.0%) 
 MO    51 (   40) HAS LZ(WEIGHT)= 0.00(100.0%) 
 MO    52 (   41) HAS LZ(WEIGHT)=-1.00( 50.0%)  1.00( 50.0%) 
 MO    53 (   41) HAS LZ(WEIGHT)=-1.00( 50.0%)  1.00( 50.0%) 
 MO    54 (   42) HAS LZ(WEIGHT)= 0.00(100.0%) 
 MO    55 (   43) HAS LZ(WEIGHT)= 0.00(100.0%) 
 MO    56 (   44) HAS LZ(WEIGHT)= 0.00(100.0%) 
 MO    57 (   45) HAS LZ(WEIGHT)=-1.00( 50.0%)  1.00( 50.0%) 
 MO    58 (   45) HAS LZ(WEIGHT)=-1.00( 50.0%)  1.00( 50.0%) 
 MO    59 (   46) HAS LZ(WEIGHT)= 0.00(100.0%) 
 MO    60 (   47) HAS LZ(WEIGHT)= 0.00(100.0%) 
 MO    61 (   48) HAS LZ(WEIGHT)=-1.00( 50.0%)  1.00( 50.0%) 
 MO    62 (   48) HAS LZ(WEIGHT)=-1.00( 50.0%)  1.00( 50.0%) 
 MO    63 (   49) HAS LZ(WEIGHT)=-1.00( 50.0%)  1.00( 50.0%) 
 MO    64 (   49) HAS LZ(WEIGHT)=-1.00( 50.0%)  1.00( 50.0%) 
 MO    65 (   50) HAS LZ(WEIGHT)= 0.00(100.0%) 
 MO    66 (   51) HAS LZ(WEIGHT)= 0.00(100.0%) 
 MO    67 (   52) HAS LZ(WEIGHT)= 0.00(100.0%) 
 MO    68 (   53) HAS LZ(WEIGHT)= 0.00(100.0%) 
 MO    69 (   54) HAS LZ(WEIGHT)= 0.00(100.0%) 
 MO    70 (   55) HAS LZ(WEIGHT)= 0.00(100.0%) 
 MO    71 (   56) HAS LZ(WEIGHT)= 0.00(100.0%) 
 MO    72 (   57) HAS LZ(WEIGHT)= 0.00(100.0%) 
 MO    73 (   58) HAS LZ(WEIGHT)= 0.00(100.0%) 
 MO    74 (   59) HAS LZ(WEIGHT)=-1.00( 50.0%)  1.00( 50.0%) 
 MO    75 (   59) HAS LZ(WEIGHT)=-1.00( 50.0%)  1.00( 50.0%) 
 MO    76 (   60) HAS LZ(WEIGHT)= 0.00(100.0%) 
 MO    77 (   61) HAS LZ(WEIGHT)=-1.00( 50.0%)  1.00( 50.0%) 
 MO    78 (   61) HAS LZ(WEIGHT)=-1.00( 50.0%)  1.00( 50.0%) 
 MO    79 (   62) HAS LZ(WEIGHT)=-3.00( 50.0%)  3.00( 50.0%) 
 MO    80 (   62) HAS LZ(WEIGHT)=-3.00( 50.0%)  3.00( 50.0%) 
 MO    81 (   63) HAS LZ(WEIGHT)= 0.00(100.0%) 
 MO    82 (   64) HAS LZ(WEIGHT)= 0.00(100.0%) 
 MO    83 (   65) HAS LZ(WEIGHT)= 0.00(100.0%) 
 MO    84 (   66) HAS LZ(WEIGHT)= 0.00(100.0%) 
 MO    85 (   67) HAS LZ(WEIGHT)=-1.00( 50.0%)  1.00( 50.0%) 
 MO    86 (   67) HAS LZ(WEIGHT)=-1.00( 50.0%)  1.00( 50.0%) 
 MO    87 (   68) HAS LZ(WEIGHT)= 0.00(100.0%) 
 MO    88 (   69) HAS LZ(WEIGHT)= 0.00(100.0%) 
 MO    89 (   70) HAS LZ(WEIGHT)= 0.00(100.0%) 
 MO    90 (   71) HAS LZ(WEIGHT)=-1.00( 50.0%)  1.00( 50.0%) 
 MO    91 (   71) HAS LZ(WEIGHT)=-1.00( 50.0%)  1.00( 50.0%) 
 MO    92 (   72) HAS LZ(WEIGHT)= 0.00(100.0%) 
 MO    93 (   73) HAS LZ(WEIGHT)= 0.00(100.0%) 
 MO    94 (   74) HAS LZ(WEIGHT)= 0.00(100.0%) 
 MO    95 (   75) HAS LZ(WEIGHT)= 0.00(100.0%) 
 MO    96 (   76) HAS LZ(WEIGHT)= 0.00(100.0%) 
 MO    97 (   77) HAS LZ(WEIGHT)= 0.00(100.0%) 
 MO    98 (   78) HAS LZ(WEIGHT)=-3.00( 50.0%)  3.00( 50.0%) 
 MO    99 (   78) HAS LZ(WEIGHT)=-3.00( 50.0%)  3.00( 50.0%) 
 MO   100 (   79) HAS LZ(WEIGHT)= 0.00(100.0%) 
 MO   101 (   80) HAS LZ(WEIGHT)= 0.00(100.0%) 
 MO   102 (   81) HAS LZ(WEIGHT)=-1.00( 50.0%)  1.00( 50.0%) 
 MO   103 (   81) HAS LZ(WEIGHT)=-1.00( 50.0%)  1.00( 50.0%) 
 MO   104 (   82) HAS LZ(WEIGHT)= 0.00(100.0%) 
 MO   105 (   83) HAS LZ(WEIGHT)= 0.00(100.0%) 
 MO   106 (   84) HAS LZ(WEIGHT)=-1.00( 50.0%)  1.00( 50.0%) 
 MO   107 (   84) HAS LZ(WEIGHT)=-1.00( 50.0%)  1.00( 50.0%) 
 MO   108 (   85) HAS LZ(WEIGHT)=-3.00( 50.0%)  3.00( 50.0%) 
 MO   109 (   85) HAS LZ(WEIGHT)=-3.00( 50.0%)  3.00( 50.0%) 
 MO   110 (   86) HAS LZ(WEIGHT)= 0.00(100.0%) 
 MO   111 (   87) HAS LZ(WEIGHT)=-3.00( 50.0%)  3.00( 50.0%) 
 MO   112 (   87) HAS LZ(WEIGHT)=-3.00( 50.0%)  3.00( 50.0%) 
 MO   113 (   88) HAS LZ(WEIGHT)= 0.00(100.0%) 
 MO   114 (   89) HAS LZ(WEIGHT)=-1.00( 50.0%)  1.00( 50.0%) 
 MO   115 (   89) HAS LZ(WEIGHT)=-1.00( 50.0%)  1.00( 50.0%) 
 MO   116 (   90) HAS LZ(WEIGHT)= 0.00(100.0%) 
 MO   117 (   91) HAS LZ(WEIGHT)= 0.00(100.0%) 
 MO   118 (   92) HAS LZ(WEIGHT)= 0.00(100.0%) 
 MO   119 (   93) HAS LZ(WEIGHT)= 0.00(100.0%) 
 MO   120 (   94) HAS LZ(WEIGHT)=-1.00( 50.0%)  1.00( 50.0%) 
 MO   121 (   94) HAS LZ(WEIGHT)=-1.00( 50.0%)  1.00( 50.0%) 
 MO   122 (   95) HAS LZ(WEIGHT)= 0.00(100.0%) 
 MO   123 (   96) HAS LZ(WEIGHT)=-1.00( 50.0%)  1.00( 50.0%) 
 MO   124 (   96) HAS LZ(WEIGHT)=-1.00( 50.0%)  1.00( 50.0%) 
 MO   125 (   97) HAS LZ(WEIGHT)= 0.00(100.0%) 
 MO   126 (   98) HAS LZ(WEIGHT)=-3.00( 50.0%)  3.00( 50.0%) 
 MO   127 (   98) HAS LZ(WEIGHT)=-3.00( 50.0%)  3.00( 50.0%) 
 MO   128 (   99) HAS LZ(WEIGHT)= 0.00(100.0%) 
 MO   129 (  100) HAS LZ(WEIGHT)= 0.00(100.0%) 
 MO   130 (  101) HAS LZ(WEIGHT)=-1.00( 50.0%)  1.00( 50.0%) 
 MO   131 (  101) HAS LZ(WEIGHT)=-1.00( 50.0%)  1.00( 50.0%) 
 MO   132 (  102) HAS LZ(WEIGHT)=-1.00( 50.0%)  1.00( 50.0%) 
 MO   133 (  102) HAS LZ(WEIGHT)=-1.00( 50.0%)  1.00( 50.0%) 
 MO   134 (  103) HAS LZ(WEIGHT)= 0.00(100.0%) 
 MO   135 (  104) HAS LZ(WEIGHT)= 0.00(100.0%) 
 MO   136 (  105) HAS LZ(WEIGHT)= 0.00(100.0%) 
 MO   137 (  106) HAS LZ(WEIGHT)=-1.00( 50.0%)  1.00( 50.0%) 
 MO   138 (  106) HAS LZ(WEIGHT)=-1.00( 50.0%)  1.00( 50.0%) 
 MO   139 (  107) HAS LZ(WEIGHT)= 0.00(100.0%) 
 MO   140 (  108) HAS LZ(WEIGHT)= 0.00(100.0%) 
 MO   141 (  109) HAS LZ(WEIGHT)=-3.00( 50.0%)  3.00( 50.0%) 
 MO   142 (  109) HAS LZ(WEIGHT)=-3.00( 50.0%)  3.00( 50.0%) 
 MO   143 (  110) HAS LZ(WEIGHT)= 0.00(100.0%) 
 MO   144 (  111) HAS LZ(WEIGHT)= 0.00(100.0%) 
 MO   145 (  112) HAS LZ(WEIGHT)= 0.00(100.0%) 
 MO   146 (  113) HAS LZ(WEIGHT)=-1.00( 50.0%)  1.00( 50.0%) 
 MO   147 (  113) HAS LZ(WEIGHT)=-1.00( 50.0%)  1.00( 50.0%) 
 MO   148 (  114) HAS LZ(WEIGHT)= 0.00(100.0%) 
 MO   149 (  115) HAS LZ(WEIGHT)= 0.00(100.0%) 
 MO   150 (  116) HAS LZ(WEIGHT)= 0.00(100.0%) 
 MO   151 (  117) HAS LZ(WEIGHT)= 0.00(100.0%) 
 MO   152 (  118) HAS LZ(WEIGHT)=-3.00( 50.0%)  3.00( 50.0%) 
 MO   153 (  118) HAS LZ(WEIGHT)=-3.00( 50.0%)  3.00( 50.0%) 
 MO   154 (  119) HAS LZ(WEIGHT)= 0.00(100.0%) 
 MO   155 (  120) HAS LZ(WEIGHT)= 0.00(100.0%) 
 MO   156 (  121) HAS LZ(WEIGHT)= 0.00(100.0%) 
 MO   157 (  122) HAS LZ(WEIGHT)=-1.00( 50.0%)  1.00( 50.0%) 
 MO   158 (  122) HAS LZ(WEIGHT)=-1.00( 50.0%)  1.00( 50.0%) 
 MO   159 (  123) HAS LZ(WEIGHT)= 0.00(100.0%) 
 MO   160 (  124) HAS LZ(WEIGHT)=-1.00( 50.0%)  1.00( 50.0%) 
 MO   161 (  124) HAS LZ(WEIGHT)=-1.00( 50.0%)  1.00( 50.0%) 
 MO   162 (  125) HAS LZ(WEIGHT)= 0.00(100.0%) 
 MO   163 (  126) HAS LZ(WEIGHT)= 0.00(100.0%) 
 MO   164 (  127) HAS LZ(WEIGHT)=-1.00( 50.0%)  1.00( 50.0%) 
 MO   165 (  127) HAS LZ(WEIGHT)=-1.00( 50.0%)  1.00( 50.0%) 
 MO   166 (  128) HAS LZ(WEIGHT)= 0.00(100.0%) 
 MO   167 (  129) HAS LZ(WEIGHT)= 0.00(100.0%) 
 MO   168 (  130) HAS LZ(WEIGHT)=-1.00( 50.0%)  1.00( 50.0%) 
 MO   169 (  130) HAS LZ(WEIGHT)=-1.00( 50.0%)  1.00( 50.0%) 
 MO   170 (  131) HAS LZ(WEIGHT)= 0.00(100.0%) 
 MO   171 (  132) HAS LZ(WEIGHT)= 0.00(100.0%) 
 MO   172 (  133) HAS LZ(WEIGHT)= 0.00(100.0%) 
 MO   173 (  134) HAS LZ(WEIGHT)=-1.00( 50.0%)  1.00( 50.0%) 
 MO   174 (  134) HAS LZ(WEIGHT)=-1.00( 50.0%)  1.00( 50.0%) 
 MO   175 (  135) HAS LZ(WEIGHT)= 0.00(100.0%) 
 MO   176 (  136) HAS LZ(WEIGHT)=-3.00( 50.0%)  3.00( 50.0%) 
 MO   177 (  136) HAS LZ(WEIGHT)=-3.00( 50.0%)  3.00( 50.0%) 
 MO   178 (  137) HAS LZ(WEIGHT)=-3.00( 50.0%)  3.00( 50.0%) 
 MO   179 (  137) HAS LZ(WEIGHT)=-3.00( 50.0%)  3.00( 50.0%) 
 MO   180 (  138) HAS LZ(WEIGHT)= 0.00(100.0%) 
 MO   181 (  139) HAS LZ(WEIGHT)=-1.00( 50.0%)  1.00( 50.0%) 
 MO   182 (  139) HAS LZ(WEIGHT)=-1.00( 50.0%)  1.00( 50.0%) 
 MO   183 (  140) HAS LZ(WEIGHT)=-1.00( 50.0%)  1.00( 50.0%) 
 MO   184 (  140) HAS LZ(WEIGHT)=-1.00( 50.0%)  1.00( 50.0%) 
 MO   185 (  141) HAS LZ(WEIGHT)= 0.00(100.0%) 
 MO   186 (  142) HAS LZ(WEIGHT)= 0.00(100.0%) 
 MO   187 (  143) HAS LZ(WEIGHT)= 0.00(100.0%) 
 MO   188 (  144) HAS LZ(WEIGHT)= 0.00(100.0%) 
 MO   189 (  145) HAS LZ(WEIGHT)= 0.00(100.0%) 
 MO   190 (  146) HAS LZ(WEIGHT)= 0.00(100.0%) 
 MO   191 (  147) HAS LZ(WEIGHT)= 0.00(100.0%) 
 MO   192 (  148) HAS LZ(WEIGHT)= 0.00(100.0%) 
 MO   193 (  149) HAS LZ(WEIGHT)=-1.00( 50.0%)  1.00( 50.0%) 
 MO   194 (  149) HAS LZ(WEIGHT)=-1.00( 50.0%)  1.00( 50.0%) 
 MO   195 (  150) HAS LZ(WEIGHT)=-1.00( 50.0%)  1.00( 50.0%) 
 MO   196 (  150) HAS LZ(WEIGHT)=-1.00( 50.0%)  1.00( 50.0%) 
 MO   197 (  151) HAS LZ(WEIGHT)=-1.00( 50.0%)  1.00( 50.0%) 
 MO   198 (  151) HAS LZ(WEIGHT)=-1.00( 50.0%)  1.00( 50.0%) 
 MO   199 (  152) HAS LZ(WEIGHT)= 0.00(100.0%) 
 MO   200 (  153) HAS LZ(WEIGHT)= 0.00(100.0%) 
 MO   201 (  154) HAS LZ(WEIGHT)= 0.00(100.0%) 
 MO   202 (  155) HAS LZ(WEIGHT)=-1.00( 50.0%)  1.00( 50.0%) 
 MO   203 (  155) HAS LZ(WEIGHT)=-1.00( 50.0%)  1.00( 50.0%) 
 MO   204 (  156) HAS LZ(WEIGHT)= 0.00(100.0%) 
 MO   205 (  157) HAS LZ(WEIGHT)= 0.00(100.0%) 
 MO   206 (  158) HAS LZ(WEIGHT)= 0.00(100.0%) 
 MO   207 (  159) HAS LZ(WEIGHT)= 0.00(100.0%) 
 MO   208 (  160) HAS LZ(WEIGHT)=-1.00( 50.0%)  1.00( 50.0%) 
 MO   209 (  160) HAS LZ(WEIGHT)=-1.00( 50.0%)  1.00( 50.0%) 
 MO   210 (  161) HAS LZ(WEIGHT)= 0.00(100.0%) 
 MO   211 (  162) HAS LZ(WEIGHT)= 0.00(100.0%) 

          ------------
          EIGENVECTORS
          ------------

                      1          2          3          4          5
                   -0.4503    -0.4906     0.0251     0.0550     0.0550
                     A          A          A          A          A   
    1  BE 1  S    0.000000   0.821357   0.360267   0.000000  -0.000000
    2  BE 1  X    0.000000   0.000000   0.000000   5.847070  -0.165169
    3  BE 1  Y    0.000000   0.000000   0.000000   0.165169   5.847070
    4  BE 1  Z   -0.705292   0.000000   0.000000   0.000000   0.000000
    5  BE 1  S    0.000000   0.013308  -1.160280  -0.000000   0.000000
    6  BE 1  S   -0.000000  -0.129703   1.089550   0.000000  -0.000000
    7  BE 1  S   -0.000000  -0.228654  18.381504   0.000000  -0.000000
    8  BE 1  S    0.000000  -0.010012  -4.278805  -0.000000  -0.000000
    9  BE 1  X    0.000000   0.000000   0.000000  -0.254322   0.007184
   10  BE 1  Y    0.000000   0.000000   0.000000  -0.007184  -0.254322
   11  BE 1  Z   -0.002900   0.000000   0.000000   0.000000   0.000000
   12  BE 1  X   -0.000000   0.000000  -0.000000  -0.139297   0.003935
   13  BE 1  Y    0.000000  -0.000000   0.000000  -0.003935  -0.139297
   14  BE 1  Z    0.038942  -0.000000   0.000000   0.000000   0.000000
   15  BE 1  X    0.000000  -0.000000   0.000000  -5.524739   0.156064
   16  BE 1  Y    0.000000   0.000000  -0.000000  -0.156064  -5.524739
   17  BE 1  Z    0.015038   0.000000  -0.000000  -0.000000   0.000000
   18  BE 1  X    0.000000   0.000000   0.000000  -4.012589   0.113348
   19  BE 1  Y    0.000000   0.000000   0.000000  -0.113348  -4.012589
   20  BE 1  Z    0.844174  -0.000000   0.000000  -0.000000  -0.000000
   21  BE 1 XX    0.000000  -0.002150  -0.437185  -0.000000   0.000000
   22  BE 1 YY    0.000000  -0.002150  -0.437185  -0.000000   0.000000
   23  BE 1 ZZ    0.000000   0.015065  -0.417309  -0.000000   0.000000
   24  BE 1 XY    0.000000   0.000000   0.000000   0.000000   0.000000
   25  BE 1 XZ    0.000000   0.000000   0.000000   0.000000   0.000000
   26  BE 1 YZ    0.000000   0.000000   0.000000   0.000000   0.000000
   27  BE 1 XX    0.000000   0.003229  -1.162991  -0.000000   0.000000
   28  BE 1 YY    0.000000   0.003229  -1.162991  -0.000000   0.000000
   29  BE 1 ZZ   -0.000000   0.014863  -1.390957  -0.000000   0.000000
   30  BE 1 XY    0.000000   0.000000   0.000000   0.000000   0.000000
   31  BE 1 XZ    0.000000   0.000000   0.000000   0.000000   0.000000
   32  BE 1 YZ    0.000000   0.000000   0.000000   0.000000   0.000000
   33  BE 1 XX    0.000000  -0.027335  -1.530310  -0.000000   0.000000
   34  BE 1 YY    0.000000  -0.027335  -1.530310  -0.000000   0.000000
   35  BE 1 ZZ    0.000000  -0.014207  -1.401495  -0.000000   0.000000
   36  BE 1 XY    0.000000   0.000000   0.000000   0.000000   0.000000
   37  BE 1 XZ    0.000000   0.000000  -0.000000   0.000000   0.000000
   38  BE 1 YZ    0.000000   0.000000   0.000000   0.000000   0.000000
   39  BE 1 XX    0.000000   0.009227  -3.916633  -0.000000   0.000000
   40  BE 1 YY    0.000000   0.009227  -3.916633  -0.000000   0.000000
   41  BE 1 ZZ    0.000000   0.056035  -2.923292  -0.000000   0.000000
   42  BE 1 XY    0.000000   0.000000   0.000000   0.000000   0.000000
   43  BE 1 XZ    0.000000   0.000000  -0.000000   0.000000   0.000000
   44  BE 1 YZ    0.000000   0.000000   0.000000   0.000000   0.000000
   45  BE 1 XXX  -0.000000   0.000000  -0.000000   0.619644  -0.017504
   46  BE 1 YYY   0.000000  -0.000000   0.000000   0.017504   0.619644
   47  BE 1 ZZZ   0.044787  -0.000000   0.000000   0.000000   0.000000
   48  BE 1 XXY   0.000000  -0.000000   0.000000   0.007828   0.277113
   49  BE 1 XXZ   0.019310  -0.000000   0.000000   0.000000   0.000000
   50  BE 1 YYX  -0.000000   0.000000  -0.000000   0.277113  -0.007828
   51  BE 1 YYZ   0.019310  -0.000000   0.000000   0.000000   0.000000
   52  BE 1 ZZX  -0.000000   0.000000  -0.000000   0.278950  -0.007880
   53  BE 1 ZZY   0.000000  -0.000000   0.000000   0.007880   0.278950
   54  BE 1 XYZ   0.000000   0.000000   0.000000   0.000000   0.000000
   55  BE 1 XXX  -0.000000   0.000000  -0.000000   1.753251  -0.049526
   56  BE 1 YYY   0.000000  -0.000000   0.000000   0.049526   1.753251
   57  BE 1 ZZZ   0.078617  -0.000000  -0.000000   0.000000   0.000000
   58  BE 1 XXY   0.000000  -0.000000   0.000000   0.022149   0.784078
   59  BE 1 XXZ   0.024893  -0.000000   0.000000   0.000000   0.000000
   60  BE 1 YYX  -0.000000   0.000000  -0.000000   0.784078  -0.022149
   61  BE 1 YYZ   0.024893  -0.000000   0.000000   0.000000   0.000000
   62  BE 1 ZZX  -0.000000   0.000000  -0.000000   0.782162  -0.022095
   63  BE 1 ZZY   0.000000  -0.000000   0.000000   0.022095   0.782162
   64  BE 1 XYZ   0.000000   0.000000   0.000000   0.000000   0.000000
   65  BE 1 XXX  -0.000000   0.000000  -0.000000   0.825885  -0.023330
   66  BE 1 YYY   0.000000  -0.000000  -0.000000   0.023330   0.825885
   67  BE 1 ZZZ  -0.008306   0.000000  -0.000000   0.000000   0.000000
   68  BE 1 XXY   0.000000  -0.000000  -0.000000   0.010433   0.369347
   69  BE 1 XXZ  -0.044393   0.000000  -0.000000   0.000000   0.000000
   70  BE 1 YYX  -0.000000   0.000000  -0.000000   0.369347  -0.010433
   71  BE 1 YYZ  -0.044393   0.000000  -0.000000   0.000000   0.000000
   72  BE 1 ZZX  -0.000000   0.000000   0.000000   0.398937  -0.011269
   73  BE 1 ZZY   0.000000   0.000000   0.000000   0.011269   0.398937
   74  BE 1 XYZ   0.000000   0.000000   0.000000   0.000000   0.000000
   75  BE 1XXXX   0.000000  -0.006349   0.081641   0.000000   0.000000
   76  BE 1YYYY   0.000000  -0.006349   0.081641   0.000000   0.000000
   77  BE 1ZZZZ  -0.000000   0.008277   0.024238   0.000000  -0.000000
   78  BE 1XXXY   0.000000   0.000000   0.000000   0.000000   0.000000
   79  BE 1XXXZ   0.000000   0.000000   0.000000   0.000000   0.000000
   80  BE 1YYYX   0.000000   0.000000   0.000000   0.000000   0.000000
   81  BE 1YYYZ   0.000000   0.000000   0.000000   0.000000   0.000000
   82  BE 1ZZZX   0.000000   0.000000   0.000000   0.000000   0.000000
   83  BE 1ZZZY   0.000000   0.000000   0.000000   0.000000   0.000000
   84  BE 1XXYY   0.000000  -0.003718   0.047804   0.000000   0.000000
   85  BE 1XXZZ   0.000000   0.001122   0.114661   0.000000   0.000000
   86  BE 1YYZZ   0.000000   0.001122   0.114661   0.000000   0.000000
   87  BE 1XXYZ   0.000000   0.000000   0.000000   0.000000   0.000000
   88  BE 1YYXZ   0.000000   0.000000   0.000000   0.000000   0.000000
   89  BE 1ZZXY   0.000000   0.000000   0.000000   0.000000   0.000000
   90  BE 1XXXX   0.000000  -0.001433   0.013701  -0.000000   0.000000
   91  BE 1YYYY   0.000000  -0.001433   0.013701   0.000000   0.000000
   92  BE 1ZZZZ   0.000000  -0.016645   1.006304   0.000000  -0.000000
   93  BE 1XXXY   0.000000   0.000000   0.000000   0.000000   0.000000
   94  BE 1XXXZ   0.000000   0.000000   0.000000   0.000000   0.000000
   95  BE 1YYYX   0.000000   0.000000   0.000000   0.000000   0.000000
   96  BE 1YYYZ   0.000000   0.000000   0.000000   0.000000   0.000000
   97  BE 1ZZZX   0.000000   0.000000   0.000000   0.000000   0.000000
   98  BE 1ZZZY   0.000000   0.000000   0.000000   0.000000   0.000000
   99  BE 1XXYY   0.000000  -0.000839   0.008019  -0.000000   0.000000
  100  BE 1XXZZ   0.000000  -0.002523   0.136820   0.000000  -0.000000
  101  BE 1YYZZ   0.000000  -0.002523   0.136820   0.000000   0.000000
  102  BE 1XXYZ   0.000000   0.000000   0.000000   0.000000   0.000000
  103  BE 1YYXZ   0.000000   0.000000   0.000000   0.000000   0.000000
  104  BE 1ZZXY   0.000000   0.000000   0.000000   0.000000   0.000000
  105  H  2  S   -0.609627   0.535998   0.083728   0.000000   0.000000
  106  H  2  S    0.078865  -0.001036   0.930983   0.000000  -0.000000
  107  H  2  S   -0.423398  -0.123581  -3.308804   0.000000   0.000000
  108  H  2  S   -0.025424  -0.053949  -0.424367  -0.000000   0.000000
  109  H  2  S    0.016308  -0.019278   0.104177   0.000000   0.000000
  110  H  2  X    0.000000   0.000000  -0.000000  -0.058755   0.001660
  111  H  2  Y    0.000000  -0.000000  -0.000000  -0.001660  -0.058755
  112  H  2  Z    0.105889   0.004930   0.570409   0.000000  -0.000000
  113  H  2  X   -0.000000   0.000000  -0.000000   0.005049  -0.000143
  114  H  2  Y    0.000000  -0.000000  -0.000000   0.000143   0.005049
  115  H  2  Z    0.085019  -0.040636  -0.572801   0.000000   0.000000
  116  H  2  X    0.000000  -0.000000   0.000000   0.009372  -0.000265
  117  H  2  Y    0.000000   0.000000   0.000000   0.000265   0.009372
  118  H  2  Z   -0.008705  -0.000946   0.034889   0.000000   0.000000
  119  H  2  X    0.000000   0.000000   0.000000   0.000256  -0.000007
  120  H  2  Y    0.000000   0.000000   0.000000   0.000007   0.000256
  121  H  2  Z    0.004059  -0.001769  -0.002855   0.000000   0.000000
  122  H  2 XX   -0.022216   0.010673  -0.130922  -0.000000   0.000000
  123  H  2 YY   -0.022216   0.010673  -0.130922  -0.000000   0.000000
  124  H  2 ZZ   -0.035572   0.009686   0.045008  -0.000000   0.000000
  125  H  2 XY    0.000000   0.000000   0.000000   0.000000   0.000000
  126  H  2 XZ    0.000000   0.000000   0.000000   0.006715  -0.000190
  127  H  2 YZ    0.000000   0.000000   0.000000   0.000190   0.006715
  128  H  2 XX   -0.004874   0.003089   0.012079   0.000000   0.000000
  129  H  2 YY   -0.004874   0.003089   0.012079   0.000000   0.000000
  130  H  2 ZZ   -0.012408   0.007997   0.053269   0.000000   0.000000
  131  H  2 XY    0.000000   0.000000   0.000000   0.000000   0.000000
  132  H  2 XZ    0.000000   0.000000   0.000000  -0.000790   0.000022
  133  H  2 YZ    0.000000   0.000000   0.000000  -0.000022  -0.000790
  134  H  2 XX   -0.000691   0.000530   0.000802   0.000000   0.000000
  135  H  2 YY   -0.000691   0.000530   0.000802   0.000000   0.000000
  136  H  2 ZZ   -0.001064   0.001135  -0.000847   0.000000   0.000000
  137  H  2 XY    0.000000   0.000000   0.000000   0.000000   0.000000
  138  H  2 XZ    0.000000   0.000000   0.000000  -0.000175   0.000005
  139  H  2 YZ    0.000000   0.000000   0.000000  -0.000005  -0.000175
  140  H  2 XXX   0.000000   0.000000   0.000000   0.002323  -0.000066
  141  H  2 YYY   0.000000   0.000000   0.000000   0.000066   0.002323
  142  H  2 ZZZ  -0.014230   0.011425   0.108924  -0.000000   0.000000
  143  H  2 XXY   0.000000   0.000000   0.000000   0.000029   0.001039
  144  H  2 XXZ  -0.007205   0.006021   0.052945   0.000000   0.000000
  145  H  2 YYX   0.000000   0.000000   0.000000   0.001039  -0.000029
  146  H  2 YYZ  -0.007205   0.006021   0.052945   0.000000   0.000000
  147  H  2 ZZX   0.000000   0.000000   0.000000  -0.000910   0.000026
  148  H  2 ZZY   0.000000   0.000000   0.000000  -0.000026  -0.000910
  149  H  2 XYZ   0.000000   0.000000   0.000000   0.000000   0.000000
  150  H  2 XXX   0.000000   0.000000   0.000000  -0.001283   0.000036
  151  H  2 YYY   0.000000  -0.000000   0.000000  -0.000036  -0.001283
  152  H  2 ZZZ   0.004211  -0.000361  -0.003798   0.000000   0.000000
  153  H  2 XXY   0.000000   0.000000   0.000000  -0.000016  -0.000574
  154  H  2 XXZ   0.001290   0.000078  -0.001344   0.000000   0.000000
  155  H  2 YYX   0.000000   0.000000   0.000000  -0.000574   0.000016
  156  H  2 YYZ   0.001290   0.000078  -0.001344   0.000000   0.000000
  157  H  2 ZZX   0.000000   0.000000   0.000000   0.000001  -0.000000
  158  H  2 ZZY   0.000000   0.000000   0.000000   0.000000   0.000001
  159  H  2 XYZ   0.000000   0.000000   0.000000   0.000000   0.000000
  160  H  3  S    0.609627   0.535998   0.083728   0.000000   0.000000
  161  H  3  S   -0.078865  -0.001036   0.930983   0.000000   0.000000
  162  H  3  S    0.423398  -0.123581  -3.308804  -0.000000  -0.000000
  163  H  3  S    0.025424  -0.053949  -0.424367   0.000000  -0.000000
  164  H  3  S   -0.016308  -0.019278   0.104177  -0.000000   0.000000
  165  H  3  X    0.000000   0.000000  -0.000000  -0.058755   0.001660
  166  H  3  Y    0.000000  -0.000000  -0.000000  -0.001660  -0.058755
  167  H  3  Z    0.105889  -0.004930  -0.570409  -0.000000  -0.000000
  168  H  3  X    0.000000   0.000000  -0.000000   0.005049  -0.000143
  169  H  3  Y    0.000000  -0.000000   0.000000   0.000143   0.005049
  170  H  3  Z    0.085019   0.040636   0.572801   0.000000   0.000000
  171  H  3  X    0.000000   0.000000   0.000000   0.009372  -0.000265
  172  H  3  Y    0.000000   0.000000   0.000000   0.000265   0.009372
  173  H  3  Z   -0.008705   0.000946  -0.034889   0.000000   0.000000
  174  H  3  X    0.000000   0.000000   0.000000   0.000256  -0.000007
  175  H  3  Y    0.000000   0.000000   0.000000   0.000007   0.000256
  176  H  3  Z    0.004059   0.001769   0.002855   0.000000   0.000000
  177  H  3 XX    0.022216   0.010673  -0.130922  -0.000000  -0.000000
  178  H  3 YY    0.022216   0.010673  -0.130922  -0.000000  -0.000000
  179  H  3 ZZ    0.035572   0.009686   0.045008  -0.000000  -0.000000
  180  H  3 XY    0.000000   0.000000   0.000000   0.000000   0.000000
  181  H  3 XZ    0.000000   0.000000   0.000000  -0.006715   0.000190
  182  H  3 YZ    0.000000  -0.000000   0.000000  -0.000190  -0.006715
  183  H  3 XX    0.004874   0.003089   0.012079   0.000000   0.000000
  184  H  3 YY    0.004874   0.003089   0.012079   0.000000   0.000000
  185  H  3 ZZ    0.012408   0.007997   0.053269   0.000000   0.000000
  186  H  3 XY    0.000000   0.000000   0.000000   0.000000   0.000000
  187  H  3 XZ    0.000000   0.000000   0.000000   0.000790  -0.000022
  188  H  3 YZ    0.000000   0.000000   0.000000   0.000022   0.000790
  189  H  3 XX    0.000691   0.000530   0.000802   0.000000   0.000000
  190  H  3 YY    0.000691   0.000530   0.000802   0.000000   0.000000
  191  H  3 ZZ    0.001064   0.001135  -0.000847   0.000000   0.000000
  192  H  3 XY    0.000000   0.000000   0.000000   0.000000   0.000000
  193  H  3 XZ    0.000000   0.000000   0.000000   0.000175  -0.000005
  194  H  3 YZ    0.000000   0.000000   0.000000   0.000005   0.000175
  195  H  3 XXX   0.000000   0.000000   0.000000   0.002323  -0.000066
  196  H  3 YYY   0.000000   0.000000  -0.000000   0.000066   0.002323
  197  H  3 ZZZ  -0.014230  -0.011425  -0.108924   0.000000  -0.000000
  198  H  3 XXY   0.000000   0.000000   0.000000   0.000029   0.001039
  199  H  3 XXZ  -0.007205  -0.006021  -0.052945   0.000000  -0.000000
  200  H  3 YYX   0.000000   0.000000   0.000000   0.001039  -0.000029
  201  H  3 YYZ  -0.007205  -0.006021  -0.052945   0.000000   0.000000
  202  H  3 ZZX   0.000000   0.000000   0.000000  -0.000910   0.000026
  203  H  3 ZZY   0.000000   0.000000   0.000000  -0.000026  -0.000910
  204  H  3 XYZ   0.000000   0.000000   0.000000   0.000000   0.000000
  205  H  3 XXX   0.000000   0.000000   0.000000  -0.001283   0.000036
  206  H  3 YYY   0.000000  -0.000000   0.000000  -0.000036  -0.001283
  207  H  3 ZZZ   0.004211   0.000361   0.003798   0.000000   0.000000
  208  H  3 XXY   0.000000   0.000000   0.000000  -0.000016  -0.000574
  209  H  3 XXZ   0.001290  -0.000078   0.001344   0.000000   0.000000
  210  H  3 YYX   0.000000   0.000000   0.000000  -0.000574   0.000016
  211  H  3 YYZ   0.001290  -0.000078   0.001344   0.000000   0.000000
  212  H  3 ZZX   0.000000   0.000000   0.000000   0.000001  -0.000000
  213  H  3 ZZY   0.000000   0.000000   0.000000   0.000000   0.000001
  214  H  3 XYZ   0.000000   0.000000   0.000000   0.000000   0.000000

                      6          7          8          9         10
                    0.0641     4.8017    17.7604     3.9818     1.8649
                     A          A          A          A          A   
    1  BE 1  S    0.000000  -0.000000 209.798151  -1.720625   3.520388
    2  BE 1  X    0.000000   0.000000   0.000000   0.000000  -0.000000
    3  BE 1  Y    0.000000   0.000000   0.000000   0.000000  -0.000000
    4  BE 1  Z   -1.368571 -43.439907   0.000000   0.000000  -0.000000
    5  BE 1  S   -0.000000  -0.000000  28.810303   8.311528 -22.971884
    6  BE 1  S    0.000000   0.000000 -57.187111  20.967231  27.167617
    7  BE 1  S    0.000000   0.000000 -94.926169  -4.194830  77.222334
    8  BE 1  S    0.000000  -0.000000  -1.239449   0.963231  -1.831941
    9  BE 1  X    0.000000   0.000000   0.000000   0.000000   0.000000
   10  BE 1  Y    0.000000   0.000000   0.000000   0.000000   0.000000
   11  BE 1  Z    0.061667   2.340275  -0.000000  -0.000000   0.000000
   12  BE 1  X   -0.000000  -0.000000  -0.000000  -0.000000   0.000000
   13  BE 1  Y   -0.000000  -0.000000   0.000000  -0.000000   0.000000
   14  BE 1  Z   -0.369810 -44.376680  -0.000000   0.000000   0.000000
   15  BE 1  X    0.000000   0.000000   0.000000   0.000000  -0.000000
   16  BE 1  Y    0.000000   0.000000  -0.000000   0.000000  -0.000000
   17  BE 1  Z   -0.431438  62.034428  -0.000000   0.000000   0.000000
   18  BE 1  X    0.000000   0.000000   0.000000   0.000000   0.000000
   19  BE 1  Y    0.000000   0.000000  -0.000000   0.000000  -0.000000
   20  BE 1  Z   23.159509 128.915229  -0.000000  -0.000000  -0.000000
   21  BE 1 XX   -0.000000  -0.000000   3.792999   3.308963  -8.599663
   22  BE 1 YY   -0.000000  -0.000000   3.792999   3.308963  -8.599663
   23  BE 1 ZZ   -0.000000  -0.000000   4.534358   2.461129  -8.755134
   24  BE 1 XY    0.000000   0.000000   0.000000   0.000000   0.000000
   25  BE 1 XZ    0.000000  -0.000000   0.000000   0.000000   0.000000
   26  BE 1 YZ    0.000000   0.000000   0.000000   0.000000  -0.000000
   27  BE 1 XX   -0.000000  -0.000000   0.259328   4.220400 -24.158885
   28  BE 1 YY   -0.000000  -0.000000   0.259328   4.220400 -24.158885
   29  BE 1 ZZ   -0.000000  -0.000000  -4.099220  44.189358 -22.913312
   30  BE 1 XY    0.000000   0.000000   0.000000   0.000000   0.000000
   31  BE 1 XZ    0.000000   0.000000   0.000000   0.000000   0.000000
   32  BE 1 YZ    0.000000   0.000000  -0.000000   0.000000  -0.000000
   33  BE 1 XX   -0.000000  -0.000000  -1.338470  -4.095453 -36.162151
   34  BE 1 YY   -0.000000  -0.000000  -1.338470  -4.095453 -36.162151
   35  BE 1 ZZ    0.000000  -0.000000   7.216355 -15.975660 -23.393078
   36  BE 1 XY    0.000000   0.000000   0.000000   0.000000   0.000000
   37  BE 1 XZ    0.000000  -0.000000   0.000000   0.000000  -0.000000
   38  BE 1 YZ    0.000000   0.000000   0.000000   0.000000   0.000000
   39  BE 1 XX   -0.000000  -0.000000  12.553247   1.582998 -25.887206
   40  BE 1 YY   -0.000000  -0.000000  12.553247   1.582998 -25.887206
   41  BE 1 ZZ   -0.000000  -0.000000  33.704763   3.150947 -40.726062
   42  BE 1 XY    0.000000   0.000000   0.000000   0.000000   0.000000
   43  BE 1 XZ    0.000000  -0.000000   0.000000   0.000000   0.000000
   44  BE 1 YZ    0.000000   0.000000   0.000000   0.000000   0.000000
   45  BE 1 XXX  -0.000000  -0.000000  -0.000000  -0.000000   0.000000
   46  BE 1 YYY  -0.000000  -0.000000   0.000000  -0.000000   0.000000
   47  BE 1 ZZZ  -0.558671 -74.018086   0.000000   0.000000   0.000000
   48  BE 1 XXY  -0.000000  -0.000000   0.000000  -0.000000   0.000000
   49  BE 1 XXZ  -0.232397 -19.423125  -0.000000   0.000000   0.000000
   50  BE 1 YYX  -0.000000  -0.000000  -0.000000  -0.000000   0.000000
   51  BE 1 YYZ  -0.232397 -19.423125  -0.000000   0.000000   0.000000
   52  BE 1 ZZX  -0.000000  -0.000000  -0.000000  -0.000000   0.000000
   53  BE 1 ZZY  -0.000000  -0.000000   0.000000  -0.000000   0.000000
   54  BE 1 XYZ   0.000000   0.000000   0.000000   0.000000   0.000000
   55  BE 1 XXX  -0.000000  -0.000000  -0.000000  -0.000000   0.000000
   56  BE 1 YYY  -0.000000  -0.000000   0.000000  -0.000000   0.000000
   57  BE 1 ZZZ  -1.952058-108.557116  -0.000000   0.000000   0.000000
   58  BE 1 XXY  -0.000000  -0.000000   0.000000  -0.000000   0.000000
   59  BE 1 XXZ  -0.431782 -29.035814  -0.000000   0.000000   0.000000
   60  BE 1 YYX  -0.000000  -0.000000  -0.000000  -0.000000   0.000000
   61  BE 1 YYZ  -0.431782 -29.035814  -0.000000   0.000000   0.000000
   62  BE 1 ZZX  -0.000000  -0.000000  -0.000000  -0.000000   0.000000
   63  BE 1 ZZY  -0.000000  -0.000000   0.000000  -0.000000   0.000000
   64  BE 1 XYZ   0.000000   0.000000   0.000000   0.000000   0.000000
   65  BE 1 XXX  -0.000000  -0.000000  -0.000000  -0.000000   0.000000
   66  BE 1 YYY  -0.000000  -0.000000   0.000000  -0.000000   0.000000
   67  BE 1 ZZZ  -1.924625 -33.270383  -0.000000   0.000000   0.000000
   68  BE 1 XXY  -0.000000  -0.000000   0.000000  -0.000000   0.000000
   69  BE 1 XXZ  -2.288961 -18.928309   0.000000   0.000000   0.000000
   70  BE 1 YYX  -0.000000  -0.000000  -0.000000  -0.000000   0.000000
   71  BE 1 YYZ  -2.288961 -18.928309   0.000000   0.000000   0.000000
   72  BE 1 ZZX  -0.000000  -0.000000  -0.000000  -0.000000   0.000000
   73  BE 1 ZZY   0.000000   0.000000   0.000000  -0.000000   0.000000
   74  BE 1 XYZ   0.000000   0.000000   0.000000   0.000000   0.000000
   75  BE 1XXXX   0.000000  -0.000000   2.257379   1.706875   1.926389
   76  BE 1YYYY   0.000000  -0.000000   2.257379   1.706875   1.926389
   77  BE 1ZZZZ   0.000000   0.000000   2.092040  22.591984   2.569740
   78  BE 1XXXY   0.000000   0.000000   0.000000   0.000000   0.000000
   79  BE 1XXXZ   0.000000  -0.000000   0.000000  -0.000000   0.000000
   80  BE 1YYYX   0.000000   0.000000   0.000000   0.000000   0.000000
   81  BE 1YYYZ   0.000000  -0.000000  -0.000000   0.000000  -0.000000
   82  BE 1ZZZX   0.000000  -0.000000   0.000000  -0.000000   0.000000
   83  BE 1ZZZY   0.000000   0.000000  -0.000000   0.000000  -0.000000
   84  BE 1XXYY   0.000000  -0.000000   1.321788   0.999448   1.127973
   85  BE 1XXZZ   0.000000  -0.000000   2.864271  -7.292228   0.415144
   86  BE 1YYZZ   0.000000  -0.000000   2.864271  -7.292228   0.415144
   87  BE 1XXYZ   0.000000  -0.000000   0.000000   0.000000  -0.000000
   88  BE 1YYXZ   0.000000   0.000000   0.000000  -0.000000   0.000000
   89  BE 1ZZXY   0.000000   0.000000   0.000000   0.000000   0.000000
   90  BE 1XXXX   0.000000  -0.000000   2.950883   0.864261  -1.843731
   91  BE 1YYYY   0.000000  -0.000000   2.950883   0.864261  -1.843731
   92  BE 1ZZZZ   0.000000  -0.000000  17.082384 -52.940050 -21.987183
   93  BE 1XXXY   0.000000   0.000000   0.000000   0.000000   0.000000
   94  BE 1XXXZ   0.000000   0.000000  -0.000000  -0.000000   0.000000
   95  BE 1YYYX   0.000000   0.000000   0.000000   0.000000   0.000000
   96  BE 1YYYZ   0.000000  -0.000000  -0.000000  -0.000000  -0.000000
   97  BE 1ZZZX   0.000000  -0.000000   0.000000  -0.000000   0.000000
   98  BE 1ZZZY   0.000000   0.000000   0.000000   0.000000   0.000000
   99  BE 1XXYY   0.000000  -0.000000   1.727850   0.506050  -1.079541
  100  BE 1XXZZ  -0.000000  -0.000000   3.629431  -1.017955  -5.229530
  101  BE 1YYZZ  -0.000000  -0.000000   3.629431  -1.017955  -5.229530
  102  BE 1XXYZ   0.000000  -0.000000  -0.000000   0.000000  -0.000000
  103  BE 1YYXZ   0.000000   0.000000   0.000000  -0.000000   0.000000
  104  BE 1ZZXY   0.000000   0.000000   0.000000   0.000000   0.000000
  105  H  2  S   -0.071239   0.900162  -4.266264  -0.058762   0.132640
  106  H  2  S    2.591535   4.462368  -0.762028  -1.049387  -0.476532
  107  H  2  S  -14.759358  -4.365925 -65.136998   1.154637  53.367418
  108  H  2  S    0.444211 101.459297 -12.394351  14.804346  -1.801936
  109  H  2  S   -0.077512   5.577622   4.543116 -19.173092  -0.516984
  110  H  2  X    0.000000   0.000000  -0.000000  -0.000000  -0.000000
  111  H  2  Y   -0.000000  -0.000000  -0.000000   0.000000  -0.000000
  112  H  2  Z    2.285026  -3.329529  13.794146   0.920520 -11.524472
  113  H  2  X    0.000000  -0.000000  -0.000000  -0.000000  -0.000000
  114  H  2  Y   -0.000000  -0.000000  -0.000000   0.000000  -0.000000
  115  H  2  Z   -0.616071 -89.706479   4.850959  85.730148   7.990858
  116  H  2  X    0.000000   0.000000   0.000000   0.000000   0.000000
  117  H  2  Y    0.000000   0.000000   0.000000  -0.000000   0.000000
  118  H  2  Z    0.043233   6.561041  -8.278875  -4.636043  -0.016552
  119  H  2  X    0.000000   0.000000  -0.000000   0.000000  -0.000000
  120  H  2  Y    0.000000  -0.000000  -0.000000   0.000000  -0.000000
  121  H  2  Z   -0.009669  -0.398271   1.742702  -0.379509  -0.007737
  122  H  2 XX   -0.412964  -6.017878  -2.740784  10.479784   3.278655
  123  H  2 YY   -0.412964  -6.017878  -2.740784  10.479784   3.278655
  124  H  2 ZZ   -0.263498   6.404106  -2.460425  -6.212528   1.385413
  125  H  2 XY    0.000000   0.000000   0.000000   0.000000   0.000000
  126  H  2 XZ    0.000000   0.000000   0.000000   0.000000   0.000000
  127  H  2 YZ    0.000000   0.000000   0.000000   0.000000   0.000000
  128  H  2 XX   -0.014015  -0.399134  -0.245027  -0.954231  -0.008397
  129  H  2 YY   -0.014015  -0.399134  -0.245027  -0.954231  -0.008397
  130  H  2 ZZ    0.001730   7.633351   0.323728  -6.492538  -0.271119
  131  H  2 XY    0.000000   0.000000   0.000000   0.000000   0.000000
  132  H  2 XZ    0.000000  -0.000000   0.000000   0.000000   0.000000
  133  H  2 YZ    0.000000   0.000000  -0.000000   0.000000   0.000000
  134  H  2 XX    0.000938   0.063334  -0.311038   0.048582   0.009598
  135  H  2 YY    0.000938   0.063334  -0.311038   0.048582   0.009598
  136  H  2 ZZ   -0.001040  -0.226481  -0.291571   0.159765  -0.015108
  137  H  2 XY    0.000000   0.000000   0.000000   0.000000   0.000000
  138  H  2 XZ    0.000000   0.000000   0.000000   0.000000   0.000000
  139  H  2 YZ    0.000000   0.000000   0.000000   0.000000   0.000000
  140  H  2 XXX   0.000000   0.000000   0.000000   0.000000  -0.000000
  141  H  2 YYY   0.000000   0.000000   0.000000  -0.000000  -0.000000
  142  H  2 ZZZ   0.012536  18.368142  -1.880070 -24.185192  -0.658971
  143  H  2 XXY   0.000000   0.000000   0.000000  -0.000000  -0.000000
  144  H  2 XXZ  -0.004566   8.361326  -0.833843 -11.503449  -0.120849
  145  H  2 YYX   0.000000   0.000000   0.000000   0.000000   0.000000
  146  H  2 YYZ  -0.004566   8.361326  -0.833843 -11.503449  -0.120849
  147  H  2 ZZX   0.000000   0.000000   0.000000   0.000000  -0.000000
  148  H  2 ZZY   0.000000   0.000000   0.000000  -0.000000  -0.000000
  149  H  2 XYZ   0.000000   0.000000   0.000000   0.000000   0.000000
  150  H  2 XXX   0.000000   0.000000  -0.000000   0.000000  -0.000000
  151  H  2 YYY   0.000000  -0.000000  -0.000000   0.000000  -0.000000
  152  H  2 ZZZ  -0.016435  -0.553045   2.620980  -0.843709   0.029494
  153  H  2 XXY   0.000000  -0.000000  -0.000000   0.000000  -0.000000
  154  H  2 XXZ  -0.006989  -0.083545   1.123686  -0.479342  -0.024784
  155  H  2 YYX   0.000000   0.000000  -0.000000   0.000000  -0.000000
  156  H  2 YYZ  -0.006989  -0.083545   1.123686  -0.479342  -0.024784
  157  H  2 ZZX   0.000000   0.000000  -0.000000   0.000000  -0.000000
  158  H  2 ZZY   0.000000  -0.000000  -0.000000   0.000000  -0.000000
  159  H  2 XYZ   0.000000   0.000000   0.000000   0.000000   0.000000
  160  H  3  S    0.071239  -0.900162  -4.266264  -0.058762   0.132640
  161  H  3  S   -2.591535  -4.462368  -0.762028  -1.049387  -0.476532
  162  H  3  S   14.759358   4.365925 -65.136998   1.154637  53.367418
  163  H  3  S   -0.444211-101.459297 -12.394351  14.804346  -1.801936
  164  H  3  S    0.077512  -5.577622   4.543116 -19.173092  -0.516984
  165  H  3  X    0.000000  -0.000000   0.000000  -0.000000   0.000000
  166  H  3  Y   -0.000000   0.000000   0.000000   0.000000   0.000000
  167  H  3  Z    2.285026  -3.329529 -13.794146  -0.920520  11.524472
  168  H  3  X    0.000000  -0.000000   0.000000  -0.000000  -0.000000
  169  H  3  Y    0.000000   0.000000   0.000000   0.000000   0.000000
  170  H  3  Z   -0.616071 -89.706479  -4.850959 -85.730148  -7.990858
  171  H  3  X   -0.000000   0.000000  -0.000000   0.000000   0.000000
  172  H  3  Y    0.000000   0.000000  -0.000000  -0.000000  -0.000000
  173  H  3  Z    0.043233   6.561041   8.278875   4.636043   0.016552
  174  H  3  X    0.000000   0.000000   0.000000  -0.000000   0.000000
  175  H  3  Y    0.000000   0.000000   0.000000   0.000000   0.000000
  176  H  3  Z   -0.009669  -0.398271  -1.742702   0.379509   0.007737
  177  H  3 XX    0.412964   6.017878  -2.740784  10.479784   3.278655
  178  H  3 YY    0.412964   6.017878  -2.740784  10.479784   3.278655
  179  H  3 ZZ    0.263498  -6.404106  -2.460425  -6.212528   1.385413
  180  H  3 XY    0.000000   0.000000   0.000000   0.000000   0.000000
  181  H  3 XZ    0.000000  -0.000000   0.000000  -0.000000   0.000000
  182  H  3 YZ    0.000000   0.000000   0.000000   0.000000   0.000000
  183  H  3 XX    0.014015   0.399134  -0.245027  -0.954231  -0.008397
  184  H  3 YY    0.014015   0.399134  -0.245027  -0.954231  -0.008397
  185  H  3 ZZ   -0.001730  -7.633351   0.323728  -6.492538  -0.271119
  186  H  3 XY    0.000000   0.000000   0.000000   0.000000   0.000000
  187  H  3 XZ    0.000000  -0.000000   0.000000   0.000000   0.000000
  188  H  3 YZ    0.000000   0.000000  -0.000000   0.000000   0.000000
  189  H  3 XX   -0.000938  -0.063334  -0.311038   0.048582   0.009598
  190  H  3 YY   -0.000938  -0.063334  -0.311038   0.048582   0.009598
  191  H  3 ZZ    0.001040   0.226481  -0.291571   0.159765  -0.015108
  192  H  3 XY    0.000000   0.000000   0.000000   0.000000   0.000000
  193  H  3 XZ    0.000000   0.000000   0.000000   0.000000   0.000000
  194  H  3 YZ    0.000000   0.000000   0.000000   0.000000   0.000000
  195  H  3 XXX   0.000000   0.000000  -0.000000   0.000000   0.000000
  196  H  3 YYY   0.000000   0.000000  -0.000000   0.000000   0.000000
  197  H  3 ZZZ   0.012536  18.368142   1.880070  24.185192   0.658971
  198  H  3 XXY   0.000000   0.000000  -0.000000   0.000000   0.000000
  199  H  3 XXZ  -0.004566   8.361326   0.833843  11.503449   0.120849
  200  H  3 YYX   0.000000   0.000000  -0.000000   0.000000   0.000000
  201  H  3 YYZ  -0.004566   8.361326   0.833843  11.503449   0.120849
  202  H  3 ZZX   0.000000   0.000000  -0.000000   0.000000   0.000000
  203  H  3 ZZY   0.000000   0.000000  -0.000000   0.000000   0.000000
  204  H  3 XYZ   0.000000   0.000000   0.000000   0.000000   0.000000
  205  H  3 XXX   0.000000  -0.000000   0.000000  -0.000000   0.000000
  206  H  3 YYY   0.000000   0.000000   0.000000   0.000000   0.000000
  207  H  3 ZZZ  -0.016435  -0.553045  -2.620980   0.843709  -0.029494
  208  H  3 XXY   0.000000   0.000000   0.000000   0.000000   0.000000
  209  H  3 XXZ  -0.006989  -0.083545  -1.123686   0.479342   0.024784
  210  H  3 YYX   0.000000   0.000000   0.000000  -0.000000   0.000000
  211  H  3 YYZ  -0.006989  -0.083545  -1.123686   0.479342   0.024784
  212  H  3 ZZX   0.000000   0.000000   0.000000  -0.000000   0.000000
  213  H  3 ZZY   0.000000   0.000000   0.000000   0.000000   0.000000
  214  H  3 XYZ   0.000000   0.000000   0.000000   0.000000   0.000000

                     11         12         13         14         15
                    6.7622    17.0203    17.0203     6.1616    24.7383
                     A          A          A          A          A   
    1  BE 1  S   -0.000000  -0.000000  -0.000000   0.000000  11.267846
    2  BE 1  X    0.000000   0.000000   0.000000   0.000000   0.000000
    3  BE 1  Y   -0.000000   0.000000  -0.000000   0.000000   0.000000
    4  BE 1  Z -115.789260   0.000000  -0.000000 -54.098608   0.000000
    5  BE 1  S    0.000000  -0.000000  -0.000000  -0.000000   1.442294
    6  BE 1  S   -0.000000   0.000000   0.000000  -0.000000 -19.230472
    7  BE 1  S   -0.000000   0.000000   0.000000   0.000000 -16.348213
    8  BE 1  S   -0.000000   0.000000   0.000000  -0.000000  -0.114941
    9  BE 1  X    0.000000   0.000000   0.000000   0.000000   0.000000
   10  BE 1  Y   -0.000000   0.000000   0.000000   0.000000   0.000000
   11  BE 1  Z    5.824902  -0.000000   0.000000   2.610653  -0.000000
   12  BE 1  X   -0.000000   0.000000  -0.000000  -0.000000  -0.000000
   13  BE 1  Y    0.000000   0.000000   0.000000  -0.000000  -0.000000
   14  BE 1  Z   41.202660   0.000000  -0.000000  -8.872173  -0.000000
   15  BE 1  X    0.000000  -0.000000   0.000000   0.000000   0.000000
   16  BE 1  Y   -0.000000  -0.000000  -0.000000   0.000000   0.000000
   17  BE 1  Z   -4.889065  -0.000000   0.000000  31.486891  -0.000000
   18  BE 1  X   -0.000000  -0.000000   0.000000  -0.000000   0.000000
   19  BE 1  Y   -0.000000  -0.000000  -0.000000   0.000000   0.000000
   20  BE 1  Z  159.104307  -0.000000   0.000000  82.655024  -0.000000
   21  BE 1 XX    0.000000   0.000000  -0.000000  -0.000000   0.375387
   22  BE 1 YY    0.000000   0.000000  -0.000000  -0.000000   0.375387
   23  BE 1 ZZ    0.000000   0.000000  -0.000000   0.000000  -0.084680
   24  BE 1 XY    0.000000   0.000000   0.000000   0.000000   0.000000
   25  BE 1 XZ   -0.000000  -0.273364   0.036364  -0.000000   0.000000
   26  BE 1 YZ   -0.000000  -0.036364  -0.273364  -0.000000   0.000000
   27  BE 1 XX    0.000000   0.000000  -0.000000   0.000000   1.709729
   28  BE 1 YY    0.000000   0.000000  -0.000000   0.000000   1.709729
   29  BE 1 ZZ   -0.000000   0.000000   0.000000  -0.000000 -17.587466
   30  BE 1 XY    0.000000   0.000000   0.000000   0.000000   0.000000
   31  BE 1 XZ    0.000000  -1.217897   0.162009   0.000000   0.000000
   32  BE 1 YZ    0.000000  -0.162009  -1.217897   0.000000   0.000000
   33  BE 1 XX    0.000000   0.000000  -0.000000  -0.000000  -6.522825
   34  BE 1 YY    0.000000   0.000000  -0.000000  -0.000000  -6.522825
   35  BE 1 ZZ    0.000000  -0.000000  -0.000000   0.000000 -16.265891
   36  BE 1 XY    0.000000   0.000000   0.000000   0.000000   0.000000
   37  BE 1 XZ    0.000000  35.751637  -4.755798  -0.000000   0.000000
   38  BE 1 YZ    0.000000   4.755798  35.751637   0.000000  -0.000000
   39  BE 1 XX    0.000000  -0.000000  -0.000000  -0.000000   3.817698
   40  BE 1 YY    0.000000  -0.000000  -0.000000  -0.000000   3.817698
   41  BE 1 ZZ    0.000000  -0.000000  -0.000000  -0.000000   9.974976
   42  BE 1 XY    0.000000   0.000000   0.000000   0.000000   0.000000
   43  BE 1 XZ    0.000000   2.764014  -0.367678   0.000000   0.000000
   44  BE 1 YZ    0.000000   0.367678   2.764014   0.000000   0.000000
   45  BE 1 XXX  -0.000000   0.000000  -0.000000  -0.000000  -0.000000
   46  BE 1 YYY   0.000000   0.000000   0.000000  -0.000000  -0.000000
   47  BE 1 ZZZ  37.051365   0.000000  -0.000000 -24.517849  -0.000000
   48  BE 1 XXY   0.000000   0.000000   0.000000  -0.000000  -0.000000
   49  BE 1 XXZ  10.445220   0.000000  -0.000000  -5.354568  -0.000000
   50  BE 1 YYX  -0.000000   0.000000  -0.000000  -0.000000  -0.000000
   51  BE 1 YYZ  10.445220   0.000000  -0.000000  -5.354568  -0.000000
   52  BE 1 ZZX  -0.000000   0.000000  -0.000000  -0.000000  -0.000000
   53  BE 1 ZZY   0.000000   0.000000   0.000000  -0.000000  -0.000000
   54  BE 1 XYZ   0.000000   0.000000   0.000000   0.000000   0.000000
   55  BE 1 XXX  -0.000000   0.000000  -0.000000  -0.000000  -0.000000
   56  BE 1 YYY   0.000000   0.000000   0.000000  -0.000000  -0.000000
   57  BE 1 ZZZ  36.117552   0.000000  -0.000000 -32.688060  -0.000000
   58  BE 1 XXY   0.000000   0.000000   0.000000  -0.000000  -0.000000
   59  BE 1 XXZ  13.572566   0.000000  -0.000000 -10.001183  -0.000000
   60  BE 1 YYX  -0.000000   0.000000  -0.000000  -0.000000  -0.000000
   61  BE 1 YYZ  13.572566   0.000000  -0.000000 -10.001183  -0.000000
   62  BE 1 ZZX  -0.000000  -0.000000  -0.000000  -0.000000  -0.000000
   63  BE 1 ZZY   0.000000   0.000000   0.000000  -0.000000  -0.000000
   64  BE 1 XYZ   0.000000   0.000000   0.000000   0.000000   0.000000
   65  BE 1 XXX   0.000000   0.000000  -0.000000   0.000000  -0.000000
   66  BE 1 YYY   0.000000   0.000000   0.000000  -0.000000  -0.000000
   67  BE 1 ZZZ   1.158869   0.000000  -0.000000  -6.644382   0.000000
   68  BE 1 XXY   0.000000   0.000000   0.000000  -0.000000   0.000000
   69  BE 1 XXZ  -7.283747   0.000000  -0.000000  -6.647533   0.000000
   70  BE 1 YYX   0.000000   0.000000  -0.000000   0.000000   0.000000
   71  BE 1 YYZ  -7.283747   0.000000  -0.000000  -6.647533   0.000000
   72  BE 1 ZZX  -0.000000  -0.000000   0.000000  -0.000000   0.000000
   73  BE 1 ZZY  -0.000000   0.000000   0.000000  -0.000000   0.000000
   74  BE 1 XYZ   0.000000   0.000000   0.000000   0.000000   0.000000
   75  BE 1XXXX  -0.000000  -0.000000  -0.000000  -0.000000   0.846228
   76  BE 1YYYY  -0.000000  -0.000000  -0.000000  -0.000000   0.846228
   77  BE 1ZZZZ  -0.000000   0.000000   0.000000   0.000000 -10.614632
   78  BE 1XXXY   0.000000   0.000000   0.000000   0.000000   0.000000
   79  BE 1XXXZ  -0.000000  -0.448581   0.059672  -0.000000   0.000000
   80  BE 1YYYX   0.000000   0.000000   0.000000   0.000000   0.000000
   81  BE 1YYYZ  -0.000000  -0.059672  -0.448581  -0.000000   0.000000
   82  BE 1ZZZX   0.000000  -2.956265   0.393252  -0.000000   0.000000
   83  BE 1ZZZY   0.000000  -0.393252  -2.956265   0.000000   0.000000
   84  BE 1XXYY  -0.000000  -0.000000  -0.000000  -0.000000   0.495501
   85  BE 1XXZZ   0.000000  -0.000000  -0.000000   0.000000   1.950946
   86  BE 1YYZZ   0.000000  -0.000000  -0.000000   0.000000   1.950946
   87  BE 1XXYZ  -0.000000  -0.026686  -0.200612  -0.000000   0.000000
   88  BE 1YYXZ  -0.000000  -0.200612   0.026686   0.000000   0.000000
   89  BE 1ZZXY   0.000000   0.000000   0.000000   0.000000   0.000000
   90  BE 1XXXX  -0.000000  -0.000000  -0.000000  -0.000000   3.153253
   91  BE 1YYYY  -0.000000  -0.000000  -0.000000  -0.000000   3.153253
   92  BE 1ZZZZ   0.000000  -0.000000  -0.000000   0.000000 -23.068402
   93  BE 1XXXY   0.000000   0.000000   0.000000   0.000000   0.000000
   94  BE 1XXXZ  -0.000000  -6.379120   0.848571   0.000000   0.000000
   95  BE 1YYYX   0.000000   0.000000   0.000000   0.000000   0.000000
   96  BE 1YYYZ  -0.000000  -0.848571  -6.379120  -0.000000   0.000000
   97  BE 1ZZZX   0.000000   9.156628  -1.218044  -0.000000   0.000000
   98  BE 1ZZZY   0.000000   1.218044   9.156628   0.000000  -0.000000
[...]
   43  BE 1 XZ    0.000000
   44  BE 1 YZ    0.000000
   45  BE 1 XXX -65.885948
   46  BE 1 YYY   2.486364
   47  BE 1 ZZZ   0.000000
   48  BE 1 XXY   1.111936
   49  BE 1 XXZ  -0.000000
   50  BE 1 YYX -29.465092
   51  BE 1 YYZ  -0.000000
   52  BE 1 ZZX -29.223616
   53  BE 1 ZZY   1.102823
   54  BE 1 XYZ   0.000000
   55  BE 1 XXX-118.369792
   56  BE 1 YYY   4.466967
   57  BE 1 ZZZ  -0.000000
   58  BE 1 XXY   1.997688
   59  BE 1 XXZ  -0.000000
   60  BE 1 YYX -52.936580
   61  BE 1 YYZ  -0.000000
   62  BE 1 ZZX -52.841702
   63  BE 1 ZZY   1.994108
   64  BE 1 XYZ   0.000000
   65  BE 1 XXX -11.924353
   66  BE 1 YYY   0.449994
   67  BE 1 ZZZ  -0.000000
   68  BE 1 XXY   0.201243
   69  BE 1 XXZ  -0.000000
   70  BE 1 YYX  -5.332733
   71  BE 1 YYZ  -0.000000
   72  BE 1 ZZX  -4.956752
   73  BE 1 ZZY   0.187055
   74  BE 1 XYZ   0.000000
   75  BE 1XXXX  -0.000000
   76  BE 1YYYY  -0.000000
   77  BE 1ZZZZ  -0.000000
   78  BE 1XXXY   0.000000
   79  BE 1XXXZ  -0.000000
   80  BE 1YYYX   0.000000
   81  BE 1YYYZ  -0.000000
   82  BE 1ZZZX   0.000000
   83  BE 1ZZZY  -0.000000
   84  BE 1XXYY  -0.000000
   85  BE 1XXZZ   0.000000
   86  BE 1YYZZ   0.000000
   87  BE 1XXYZ   0.000000
   88  BE 1YYXZ  -0.000000
   89  BE 1ZZXY   0.000000
   90  BE 1XXXX  -0.000000
   91  BE 1YYYY  -0.000000
   92  BE 1ZZZZ   0.000000
   93  BE 1XXXY   0.000000
   94  BE 1XXXZ   0.000000
   95  BE 1YYYX   0.000000
   96  BE 1YYYZ  -0.000000
   97  BE 1ZZZX  -0.000000
   98  BE 1ZZZY  -0.000000
   99  BE 1XXYY  -0.000000
  100  BE 1XXZZ  -0.000000
  101  BE 1YYZZ  -0.000000
  102  BE 1XXYZ  -0.000000
  103  BE 1YYXZ   0.000000
  104  BE 1ZZXY   0.000000
  105  H  2  S    0.000000
  106  H  2  S    0.000000
  107  H  2  S   -0.000000
  108  H  2  S   -0.000000
  109  H  2  S    0.000000
  110  H  2  X   -0.296255
  111  H  2  Y    0.011180
  112  H  2  Z    0.000000
  113  H  2  X   -2.148810
  114  H  2  Y    0.081090
  115  H  2  Z   -0.000000
  116  H  2  X    0.867428
  117  H  2  Y   -0.032734
  118  H  2  Z    0.000000
  119  H  2  X   -0.125959
  120  H  2  Y    0.004753
  121  H  2  Z    0.000000
  122  H  2 XX   -0.000000
  123  H  2 YY   -0.000000
  124  H  2 ZZ    0.000000
  125  H  2 XY    0.000000
  126  H  2 XZ    0.148206
  127  H  2 YZ   -0.005593
  128  H  2 XX    0.000000
  129  H  2 YY    0.000000
  130  H  2 ZZ    0.000000
  131  H  2 XY    0.000000
  132  H  2 XZ    0.111256
  133  H  2 YZ   -0.004199
  134  H  2 XX    0.000000
  135  H  2 YY    0.000000
  136  H  2 ZZ    0.000000
  137  H  2 XY    0.000000
  138  H  2 XZ   -0.015156
  139  H  2 YZ    0.000572
  140  H  2 XXX   0.920966
  141  H  2 YYY  -0.034755
  142  H  2 ZZZ   0.000000
  143  H  2 XXY  -0.015543
  144  H  2 XXZ   0.000000
  145  H  2 YYX   0.411869
  146  H  2 YYZ   0.000000
  147  H  2 ZZX   0.351848
  148  H  2 ZZY  -0.013278
  149  H  2 XYZ   0.000000
  150  H  2 XXX  -0.168579
  151  H  2 YYY   0.006362
  152  H  2 ZZZ   0.000000
  153  H  2 XXY   0.002845
  154  H  2 XXZ   0.000000
  155  H  2 YYX  -0.075391
  156  H  2 YYZ   0.000000
  157  H  2 ZZX  -0.076677
  158  H  2 ZZY   0.002894
  159  H  2 XYZ   0.000000
  160  H  3  S   -0.000000
  161  H  3  S    0.000000
  162  H  3  S    0.000000
  163  H  3  S   -0.000000
  164  H  3  S    0.000000
  165  H  3  X   -0.296255
  166  H  3  Y    0.011180
  167  H  3  Z    0.000000
  168  H  3  X   -2.148810
  169  H  3  Y    0.081090
  170  H  3  Z    0.000000
  171  H  3  X    0.867428
  172  H  3  Y   -0.032734
  173  H  3  Z   -0.000000
  174  H  3  X   -0.125959
  175  H  3  Y    0.004753
  176  H  3  Z   -0.000000
  177  H  3 XX   -0.000000
  178  H  3 YY   -0.000000
  179  H  3 ZZ    0.000000
  180  H  3 XY    0.000000
  181  H  3 XZ   -0.148206
  182  H  3 YZ    0.005593
  183  H  3 XX    0.000000
  184  H  3 YY    0.000000
  185  H  3 ZZ    0.000000
  186  H  3 XY    0.000000
  187  H  3 XZ   -0.111256
  188  H  3 YZ    0.004199
  189  H  3 XX    0.000000
  190  H  3 YY    0.000000
  191  H  3 ZZ   -0.000000
  192  H  3 XY    0.000000
  193  H  3 XZ    0.015156
  194  H  3 YZ   -0.000572
  195  H  3 XXX   0.920966
  196  H  3 YYY  -0.034755
  197  H  3 ZZZ  -0.000000
  198  H  3 XXY  -0.015543
  199  H  3 XXZ  -0.000000
  200  H  3 YYX   0.411869
  201  H  3 YYZ  -0.000000
  202  H  3 ZZX   0.351848
  203  H  3 ZZY  -0.013278
  204  H  3 XYZ   0.000000
  205  H  3 XXX  -0.168579
  206  H  3 YYY   0.006362
  207  H  3 ZZZ  -0.000000
  208  H  3 XXY   0.002845
  209  H  3 XXZ  -0.000000
  210  H  3 YYX  -0.075391
  211  H  3 YYZ  -0.000000
  212  H  3 ZZX  -0.076677
  213  H  3 ZZY   0.002894
  214  H  3 XYZ   0.000000
 ...... END OF RHF CALCULATION ......
 CPU     0: STEP CPU TIME=     2.26 TOTAL CPU TIME=         14.6 (      0.2 MIN)
 TOTAL WALL CLOCK TIME=         15.2 SECONDS, CPU UTILIZATION IS    96.05%

     ----------------------------------------------------------------
     PROPERTY VALUES FOR THE RHF   SELF-CONSISTENT FIELD WAVEFUNCTION
     ----------------------------------------------------------------

          -----------------
          ENERGY COMPONENTS
          -----------------

         WAVEFUNCTION NORMALIZATION =       1.0000000000

                ONE ELECTRON ENERGY =      -6.0388955938
                TWO ELECTRON ENERGY =       2.0785191915
           NUCLEAR REPULSION ENERGY =       1.7953088221
                                      ------------------
                       TOTAL ENERGY =      -2.1650675802

 ELECTRON-ELECTRON POTENTIAL ENERGY =       2.0785191915
  NUCLEUS-ELECTRON POTENTIAL ENERGY =      -7.7802111435
   NUCLEUS-NUCLEUS POTENTIAL ENERGY =       1.7953088221
                                      ------------------
             TOTAL POTENTIAL ENERGY =      -3.9063831300
               TOTAL KINETIC ENERGY =       1.7413155497
                 VIRIAL RATIO (V/T) =       2.2433516605

          ---------------------------------------
          MULLIKEN AND LOWDIN POPULATION ANALYSES
          ---------------------------------------

     ATOMIC MULLIKEN POPULATION IN EACH MOLECULAR ORBITAL

                      1          2

                  2.000000   2.000000

    1            -0.372208   0.921014
    2             1.186104   0.539493
    3             1.186104   0.539493

               ----- POPULATIONS IN EACH AO -----
                             MULLIKEN      LOWDIN
              1  BE 1  S      1.47164     0.09030
              2  BE 1  X      0.00000     0.00000
              3  BE 1  Y      0.00000     0.00000
              4  BE 1  Z      1.32525     0.15060
              5  BE 1  S      0.00655     0.00176
              6  BE 1  S     -0.19850     0.06707
              7  BE 1  S     -0.36244     0.05564
              8  BE 1  S     -0.01092     0.01704
              9  BE 1  X      0.00000     0.00000
             10  BE 1  Y      0.00000     0.00000
             11  BE 1  Z      0.00130     0.01782
             12  BE 1  X     -0.00000     0.00000
             13  BE 1  Y     -0.00000     0.00000
             14  BE 1  Z     -0.04522     0.08561
             15  BE 1  X      0.00000     0.00000
             16  BE 1  Y      0.00000     0.00000
             17  BE 1  Z     -0.02841     0.15515
             18  BE 1  X      0.00000     0.00000
             19  BE 1  Y      0.00000     0.00000
             20  BE 1  Z     -1.38298     0.09478
             21  BE 1 XX     -0.00149     0.01355
             22  BE 1 YY     -0.00149     0.01355
             23  BE 1 ZZ      0.01477     0.02905
             24  BE 1 XY      0.00000     0.00000
             25  BE 1 XZ      0.00000     0.00000
             26  BE 1 YZ      0.00000     0.00000
             27  BE 1 XX      0.00325     0.02978
             28  BE 1 YY      0.00325     0.02978
             29  BE 1 ZZ      0.02460     0.10040
             30  BE 1 XY      0.00000     0.00000
             31  BE 1 XZ      0.00000     0.00000
             32  BE 1 YZ      0.00000     0.00000
             33  BE 1 XX     -0.02701     0.02120
             34  BE 1 YY     -0.02701     0.02120
             35  BE 1 ZZ     -0.02526     0.10862
             36  BE 1 XY      0.00000     0.00000
             37  BE 1 XZ      0.00000     0.00000
             38  BE 1 YZ      0.00000     0.00000
             39  BE 1 XX      0.00574     0.00381
             40  BE 1 YY      0.00574     0.00381
             41  BE 1 ZZ      0.06433     0.03150
             42  BE 1 XY      0.00000     0.00000
             43  BE 1 XZ      0.00000     0.00000
             44  BE 1 YZ      0.00000     0.00000
             45  BE 1 XXX    -0.00000     0.00000
             46  BE 1 YYY    -0.00000     0.00000
             47  BE 1 ZZZ    -0.07744     0.14310
             48  BE 1 XXY    -0.00000     0.00000
             49  BE 1 XXZ    -0.01878     0.03340
             50  BE 1 YYX    -0.00000     0.00000
             51  BE 1 YYZ    -0.01878     0.03340
             52  BE 1 ZZX     0.00000     0.00000
             53  BE 1 ZZY    -0.00000     0.00000
             54  BE 1 XYZ     0.00000     0.00000
             55  BE 1 XXX    -0.00000     0.00000
             56  BE 1 YYY    -0.00000     0.00000
             57  BE 1 ZZZ    -0.14516     0.15608
             58  BE 1 XXY    -0.00000     0.00000
             59  BE 1 XXZ    -0.02461     0.02705
             60  BE 1 YYX    -0.00000     0.00000
             61  BE 1 YYZ    -0.02461     0.02705
             62  BE 1 ZZX     0.00000     0.00000
             63  BE 1 ZZY    -0.00000     0.00000
             64  BE 1 XYZ     0.00000     0.00000
             65  BE 1 XXX    -0.00000     0.00000
             66  BE 1 YYY    -0.00000     0.00000
             67  BE 1 ZZZ     0.00994     0.04722
             68  BE 1 XXY    -0.00000     0.00000
             69  BE 1 XXZ     0.02865     0.00847
             70  BE 1 YYX    -0.00000     0.00000
             71  BE 1 YYZ     0.02865     0.00847
             72  BE 1 ZZX     0.00000     0.00000
             73  BE 1 ZZY     0.00000     0.00000
             74  BE 1 XYZ     0.00000     0.00000
             75  BE 1XXXX    -0.00469     0.01359
             76  BE 1YYYY    -0.00469     0.01359
             77  BE 1ZZZZ     0.01366     0.12081
             78  BE 1XXXY     0.00000     0.00000
             79  BE 1XXXZ     0.00000     0.00000
             80  BE 1YYYX     0.00000     0.00000
             81  BE 1YYYZ     0.00000     0.00000
             82  BE 1ZZZX     0.00000     0.00000
             83  BE 1ZZZY     0.00000     0.00000
             84  BE 1XXYY    -0.00313     0.01542
             85  BE 1XXZZ     0.00135     0.03349
             86  BE 1YYZZ     0.00135     0.03349
             87  BE 1XXYZ     0.00000     0.00000
             88  BE 1YYXZ     0.00000     0.00000
             89  BE 1ZZXY     0.00000     0.00000
             90  BE 1XXXX    -0.00077     0.00461
             91  BE 1YYYY    -0.00077     0.00461
             92  BE 1ZZZZ    -0.02184     0.05940
             93  BE 1XXXY     0.00000     0.00000
             94  BE 1XXXZ     0.00000     0.00000
             95  BE 1YYYX     0.00000     0.00000
             96  BE 1YYYZ     0.00000     0.00000
             97  BE 1ZZZX     0.00000     0.00000
             98  BE 1ZZZY     0.00000     0.00000
             99  BE 1XXYY    -0.00052     0.00510
            100  BE 1XXZZ    -0.00235     0.01543
            101  BE 1YYZZ    -0.00235     0.01543
            102  BE 1XXYZ     0.00000     0.00000
            103  BE 1YYXZ     0.00000     0.00000
            104  BE 1ZZXY     0.00000     0.00000
            105  H  2  S      1.55856     0.19668
            106  H  2  S     -0.02813     0.02816
            107  H  2  S      0.19594     0.08337
            108  H  2  S     -0.04095     0.14694
            109  H  2  S     -0.04112     0.16595
            110  H  2  X      0.00000     0.00000
            111  H  2  Y     -0.00000     0.00000
            112  H  2  Z     -0.04809     0.02172
            113  H  2  X      0.00000     0.00000
            114  H  2  Y     -0.00000     0.00000
            115  H  2  Z      0.02891     0.00473
            116  H  2  X      0.00000     0.00000
            117  H  2  Y      0.00000     0.00000
            118  H  2  Z     -0.00163     0.00224
            119  H  2  X      0.00000     0.00000
            120  H  2  Y      0.00000     0.00000
            121  H  2  Z      0.00051     0.00035
            122  H  2 XX      0.02451     0.02721
            123  H  2 YY      0.02451     0.02721
            124  H  2 ZZ      0.02505     0.03917
            125  H  2 XY      0.00000     0.00000
            126  H  2 XZ      0.00000     0.00000
            127  H  2 YZ     -0.00000     0.00000
            128  H  2 XX      0.00712     0.04013
            129  H  2 YY      0.00712     0.04013
            130  H  2 ZZ      0.01959     0.06079
            131  H  2 XY      0.00000     0.00000
            132  H  2 XZ      0.00000     0.00000
            133  H  2 YZ      0.00000     0.00000
            134  H  2 XX      0.00086     0.03956
            135  H  2 YY      0.00086     0.03956
            136  H  2 ZZ      0.00160     0.04480
            137  H  2 XY      0.00000     0.00000
            138  H  2 XZ      0.00000     0.00000
            139  H  2 YZ      0.00000     0.00000
            140  H  2 XXX     0.00000     0.00000
            141  H  2 YYY    -0.00000     0.00000
            142  H  2 ZZZ    -0.00573     0.00388
            143  H  2 XXY     0.00000     0.00000
            144  H  2 XXZ    -0.00256     0.00156
            145  H  2 YYX     0.00000     0.00000
            146  H  2 YYZ    -0.00256     0.00156
            147  H  2 ZZX     0.00000     0.00000
            148  H  2 ZZY     0.00000     0.00000
            149  H  2 XYZ     0.00000     0.00000
            150  H  2 XXX     0.00000     0.00000
            151  H  2 YYY    -0.00000     0.00000
            152  H  2 ZZZ     0.00091     0.00257
            153  H  2 XXY     0.00000     0.00000
            154  H  2 XXZ     0.00016     0.00055
            155  H  2 YYX     0.00000     0.00000
            156  H  2 YYZ     0.00016     0.00055
            157  H  2 ZZX     0.00000     0.00000
            158  H  2 ZZY     0.00000     0.00000
            159  H  2 XYZ     0.00000     0.00000
            160  H  3  S      1.55856     0.19668
            161  H  3  S     -0.02813     0.02816
            162  H  3  S      0.19594     0.08337
            163  H  3  S     -0.04095     0.14694
            164  H  3  S     -0.04112     0.16595
            165  H  3  X      0.00000     0.00000
            166  H  3  Y     -0.00000     0.00000
            167  H  3  Z     -0.04809     0.02172
            168  H  3  X      0.00000     0.00000
            169  H  3  Y     -0.00000     0.00000
            170  H  3  Z      0.02891     0.00473
            171  H  3  X      0.00000     0.00000
            172  H  3  Y      0.00000     0.00000
            173  H  3  Z     -0.00163     0.00224
            174  H  3  X      0.00000     0.00000
            175  H  3  Y      0.00000     0.00000
            176  H  3  Z      0.00051     0.00035
            177  H  3 XX      0.02451     0.02721
            178  H  3 YY      0.02451     0.02721
            179  H  3 ZZ      0.02505     0.03917
            180  H  3 XY      0.00000     0.00000
            181  H  3 XZ      0.00000     0.00000
            182  H  3 YZ     -0.00000     0.00000
            183  H  3 XX      0.00712     0.04013
            184  H  3 YY      0.00712     0.04013
            185  H  3 ZZ      0.01959     0.06079
            186  H  3 XY      0.00000     0.00000
            187  H  3 XZ      0.00000     0.00000
            188  H  3 YZ      0.00000     0.00000
            189  H  3 XX      0.00086     0.03956
            190  H  3 YY      0.00086     0.03956
            191  H  3 ZZ      0.00160     0.04480
            192  H  3 XY      0.00000     0.00000
            193  H  3 XZ      0.00000     0.00000
            194  H  3 YZ      0.00000     0.00000
            195  H  3 XXX     0.00000     0.00000
            196  H  3 YYY     0.00000     0.00000
            197  H  3 ZZZ    -0.00573     0.00388
            198  H  3 XXY     0.00000     0.00000
            199  H  3 XXZ    -0.00256     0.00156
            200  H  3 YYX     0.00000     0.00000
            201  H  3 YYZ    -0.00256     0.00156
            202  H  3 ZZX     0.00000     0.00000
            203  H  3 ZZY     0.00000     0.00000
            204  H  3 XYZ     0.00000     0.00000
            205  H  3 XXX     0.00000     0.00000
            206  H  3 YYY    -0.00000     0.00000
            207  H  3 ZZZ     0.00091     0.00257
            208  H  3 XXY     0.00000     0.00000
            209  H  3 XXZ     0.00016     0.00055
            210  H  3 YYX     0.00000     0.00000
            211  H  3 YYZ     0.00016     0.00055
            212  H  3 ZZX     0.00000     0.00000
            213  H  3 ZZY     0.00000     0.00000
            214  H  3 XYZ     0.00000     0.00000

          ----- MULLIKEN ATOMIC OVERLAP POPULATIONS -----
          (OFF-DIAGONAL ELEMENTS NEED TO BE MULTIPLIED BY 2)

             1           2           3

    1    0.7352567
    2   -0.0932252   2.4075062
    3   -0.0932252  -0.5886841   2.4075062

          TOTAL MULLIKEN AND LOWDIN ATOMIC POPULATIONS
       ATOM         MULL.POP.    CHARGE          LOW.POP.     CHARGE
    1 BE            0.548806    1.451194         1.961201    0.038799
    2 H             1.725597   -0.725597         1.019400   -0.019400
    3 H             1.725597   -0.725597         1.019400   -0.019400

          -------------------------------
          BOND ORDER AND VALENCE ANALYSIS     BOND ORDER THRESHOLD=0.050
          -------------------------------

                   BOND                       BOND                       BOND
  ATOM PAIR DIST  ORDER      ATOM PAIR DIST  ORDER      ATOM PAIR DIST  ORDER
    1   2  1.326  0.055        1   3  1.326  0.055

                       TOTAL       BONDED        FREE
      ATOM            VALENCE     VALENCE     VALENCE
    1 BE                0.111       0.111       0.000
    2 H                 0.030       0.030      -0.000
    3 H                 0.030       0.030       0.000

          ---------------------
          ELECTROSTATIC MOMENTS
          ---------------------

 POINT   1           X           Y           Z (BOHR)    CHARGE
                 0.000000    0.000000    0.000000        0.00 (A.U.)
         DX          DY          DZ         /D/  (DEBYE)
     0.000000   -0.000000   -0.000000    0.000000
 ...... END OF PROPERTY EVALUATION ......
 CPU     0: STEP CPU TIME=     0.47 TOTAL CPU TIME=         15.1 (      0.3 MIN)
 TOTAL WALL CLOCK TIME=         15.7 SECONDS, CPU UTILIZATION IS    95.98%
                841596  WORDS OF DYNAMIC MEMORY USED
 EXECUTION OF GAMESS TERMINATED NORMALLY Tue Aug 25 07:50:07 2020
 DDI: 263640 bytes (0.3 MB / 0 MWords) used by master data server.

 ----------------------------------------
 CPU timing information for all processes
 ========================================
 0: 12.13 + 3.329 = 15.342
 1: 14.28 + 1.481 = 15.509
 2: 13.970 + 1.483 = 15.454
 3: 14.79 + 1.393 = 15.472
 4: 17.362 + 0.616 = 17.978
 5: 17.342 + 0.639 = 17.981
 6: 17.327 + 0.611 = 17.939
 7: 17.384 + 0.564 = 17.948
 ----------------------------------------
----- accounting info -----
Files used on the master node nid02418 were:
-rw-rw---- 1 haihan haihan    735769 Aug 25 07:49 /global/cscratch1/sd/haihan/gamess_33745725/scf.F05
-rw-rw---- 1 haihan haihan 192077072 Aug 25 07:50 /global/cscratch1/sd/haihan/gamess_33745725/scf.F08
-rw-rw---- 1 haihan haihan 235929600 Aug 25 07:50 /global/cscratch1/sd/haihan/gamess_33745725/scf.F10
-rw-rw---- 1 haihan haihan    736683 Aug 25 07:50 /global/cscratch1/sd/haihan/gamess_33745725/scf.dat
Tue Aug 25 07:50:11 PDT 2020
3.053u 1.726s 0:29.85 15.9%	0+0k 1674+11272io 5pf+0w
