mkdir: cannot create directory '/global/cscratch1/sd/haihan/gamess_44828631': File exists
----- GAMESS execution script 'rungms' -----
This job is running on host nid02525
under operating system Linux at Tue Jul 27 11:12:21 PDT 2021
Slurm has assigned the following compute nodes to this run:
nid02525
Available scratch disk space (Kbyte units) at beginning of the job is
Filesystem                                                 1K-blocks           Used     Available Use% Mounted on
10.100.104.4@o2ib4000:10.101.104.5@o2ib4001:/snx11168 29531080226208 21310661257980 7921659682156  73% /global/cscratch1
GAMESS temporary binary files will be written to /global/cscratch1/sd/haihan/gamess_44828631
GAMESS supplementary output files will be written to /global/cscratch1/sd/haihan/gamess_44828631
Copying input file cisd_4.inp to your run's scratch directory...
cp cisd_4.inp /global/cscratch1/sd/haihan/gamess_44828631/cisd_4.F05
unset echo
setenv DDI_DS_PER_NODE 1
setenv OMP_NUM_THREADS 1
setenv OMP_PROC_BIND spread
setenv OMP_PLACES cores
chdir /global/cscratch1/sd/haihan/gamess_44828631/cisd_4
sbcast --compress=lz4 /usr/common/software/gamess/30SEP2019R2/intel/19.0.3.199/hsw/bin/gamess.00.x /tmp/gamess
srun -n 8 -c 2 --cpu_bind=cores /tmp/gamess cisd_4
          ******************************************************
          *         GAMESS VERSION = 30 SEP 2019 (R2)          *
          *             FROM IOWA STATE UNIVERSITY             *
          * M.W.SCHMIDT, K.K.BALDRIDGE, J.A.BOATZ, S.T.ELBERT, *
          *   M.S.GORDON, J.H.JENSEN, S.KOSEKI, N.MATSUNAGA,   *
          *          K.A.NGUYEN, S.J.SU, T.L.WINDUS,           *
          *       TOGETHER WITH M.DUPUIS, J.A.MONTGOMERY       *
          *         J.COMPUT.CHEM.  14, 1347-1363(1993)        *
          **************** 64 BIT LINUX VERSION ****************

  SINCE 1993, STUDENTS AND POSTDOCS WORKING AT IOWA STATE UNIVERSITY
  AND ALSO IN THEIR VARIOUS JOBS AFTER LEAVING ISU HAVE MADE IMPORTANT
  CONTRIBUTIONS TO THE CODE:
     IVANA ADAMOVIC, CHRISTINE AIKENS, YURI ALEXEEV, POOJA ARORA,
     ANDREY ASADCHEV, ROB BELL, PRADIPTA BANDYOPADHYAY, JONATHAN BENTZ,
     COLLEEN BERTONI, BRETT BODE, KURT BRORSEN, CALEB CARLIN, GALINA CHABAN,
     WEI CHEN, CHEOL HO CHOI, PAUL DAY, ALBERT DEFUSCO, NUWAN DESILVA,
     TIM DUDLEY, DMITRI FEDOROV, ALEX FINDLATER, GRAHAM FLETCHER, 
     MARK FREITAG, KURT GLAESEMANN, EMILIE B GUIDEZ, ANASTASIA GUNINA, 
     DAN KEMP, SAROM SOK LEANG, GRANT MERRILL,
     NORIYUKI MINEZAWA, JONATHAN MULLIN,
     TAKESHI NAGATA, SEAN NEDD, HEATHER NETZLOFF, BOSILJKA NJEGIC, RYAN OLSON,
     MIKE PAK, BUU PHAM, DAVID POOLE,
     SPENCER PRUITT, LUKE ROSKOP, TOSAPORN SATTASATHUCHANA,
     JIM SHOEMAKER, LYUDMILA SLIPCHENKO,
     TONY SMITH, JIE SONG, TETSUYA TAKETSUGU, SIMON WEBB,
     JORGE LUIS GALVEZ VALLEJO, PENG XU, SOOHAENG YOO,
     FEDERICO ZAHARIEV

  ADDITIONAL CODE HAS BEEN PROVIDED BY COLLABORATORS IN OTHER GROUPS:
     IOWA STATE UNIVERSITY:
          JOE IVANIC, AARON WEST, LAIMUTIS BYTAUTAS, KLAUS RUEDENBERG
     UNIVERSITY OF TOKYO: KIMIHIKO HIRAO, TAKAHITO NAKAJIMA,
          TAKAO TSUNEDA, MUNEAKI KAMIYA, SUSUMU YANAGISAWA,
          KIYOSHI YAGI, MAHITO CHIBA, SEIKEN TOKURA, NAOAKI KAWAKAMI
     UNIVERSITY OF AARHUS: FRANK JENSEN
     UNIVERSITY OF IOWA: VISVALDAS KAIRYS, HUI LI
     NATIONAL INST. OF STANDARDS AND TECHNOLOGY: WALT STEVENS, DAVID GARMER
     UNIVERSITY OF PISA: BENEDETTA MENNUCCI, JACOPO TOMASI
     UNIVERSITY OF MEMPHIS: HENRY KURTZ, PRAKASHAN KORAMBATH
     UNIVERSITY OF ALBERTA: TOBY ZENG, MARIUSZ KLOBUKOWSKI
     UNIVERSITY OF NEW ENGLAND: MARK SPACKMAN
     MIE UNIVERSITY: HIROAKI UMEDA
     NAT. INST. OF ADVANCED INDUSTRIAL SCIENCE AND TECHNOLOGY: KAZUO KITAURA
     MICHIGAN STATE UNIVERSITY:
          KAROL KOWALSKI, MARTA WLOCH, JEFFREY GOUR, JESSE LUTZ,
          WEI LI, JUN SHEN, J. EMILIANO DEUSTUA, PIOTR PIECUCH
     UNIVERSITY OF MINNESOTA:
          ANDREW SAND, PRACHI SHARMA, YINAN SHU
     UNIVERSITY OF SILESIA: MONIKA MUSIAL, STANISLAW KUCHARSKI
     FACULTES UNIVERSITAIRES NOTRE-DAME DE LA PAIX:
          OLIVIER QUINET, BENOIT CHAMPAGNE
     UNIVERSITY OF CALIFORNIA - SANTA BARBARA: BERNARD KIRTMAN
     INSTITUTE FOR MOLECULAR SCIENCE:
          KAZUYA ISHIMURA, MICHIO KATOUDA, AND SHIGERU NAGASE
     UNIVERSITY OF NOTRE DAME: ANNA POMOGAEVA, DAN CHIPMAN
     KYUSHU UNIVERSITY:
          HARUYUKI NAKANO,
          FENG LONG GU, JACEK KORCHOWIEC, MARCIN MAKOWSKI, AND YURIKO AOKI,
          HIROTOSHI MORI AND EISAKU MIYOSHI
     PENNSYLVANIA STATE UNIVERSITY:
          TZVETELIN IORDANOV, CHET SWALINA, JONATHAN SKONE,
          SHARON HAMMES-SCHIFFER
     WASEDA UNIVERSITY:
          MASATO KOBAYASHI, TOMOKO AKAMA, TSUGUKI TOUMA,
          TAKESHI YOSHIKAWA, YASUHIRO IKABATA, JUNJI SEINO,
          YUYA NAKAJIMA, HIROMI NAKAI
     NANJING UNIVERSITY: SHUHUA LI
     UNIVERSITY OF NEBRASKA:
          PEIFENG SU, DEJUN SI, NANDUN THELLAMUREGE, YALI WANG, HUI LI
     UNIVERSITY OF ZURICH: ROBERTO PEVERATI, KIM BALDRIDGE
     N. COPERNICUS UNIVERSITY AND JACKSON STATE UNIVERSITY:
          MARIA BARYSZ
     UNIVERSITY OF COPENHAGEN: Jimmy Kromann, CASPER STEINMANN
     TOKYO INSTITUTE OF TECHNOLOGY: HIROYA NAKATA
     NAGOYA UNIVERSITY: YOSHIO NISHIMOTO, STEPHAN IRLE
     MOSCOW STATE UNIVERSITY: VLADIMIR MIRONOV
     A.N.NESMEYANOV INSTITUTE OF ORGANOELEMENT COMPOUNDS OF RUSSIAN ACADEMY OF SCIENCES:
          IGOR S. GERASIMOV
     JOHANNES KEPLER UNIVERSITY LINZ:
          CHRISTIAN FRIEDL


 PARALLEL VERSION RUNNING ON        4 PROCESSORS IN        1 NODES.

 EXECUTION OF GAMESS BEGUN Tue Jul 27 11:12:28 2021

            ECHO OF THE FIRST FEW INPUT CARDS -
 INPUT CARD> $CONTRL                                                                        
 INPUT CARD>     SCFTYP=NONE                                                                
 INPUT CARD>     MULT=1                                                                     
 INPUT CARD>     CITYP=GUGA                                                                 
 INPUT CARD>     ICHARG=0                                                                   
 INPUT CARD>     EXETYP=RUN                                                                 
 INPUT CARD>     RUNTYP=ENERGY                                                              
 INPUT CARD>     MAXIT=200                                                                  
 INPUT CARD>     PP=READ                                                                    
 INPUT CARD>     ISPHER=1                                                                   
 INPUT CARD>     UNITS=ANGS                                                                 
 INPUT CARD> $END                                                                           
 INPUT CARD>                                                                                
 INPUT CARD> $SYSTEM                                                                        
 INPUT CARD>    MWORDS=1000                                                                 
 INPUT CARD>    MEMDDI=1000                                                                 
 INPUT CARD> $END                                                                           
 INPUT CARD>                                                                                
 INPUT CARD> $GUESS                                                                         
 INPUT CARD>     GUESS=MOREAD                                                               
 INPUT CARD>     NORDER=1                                                                   
 INPUT CARD>     NORB=104                                                                   
 INPUT CARD>     IORDER(7)=9                                                                
 INPUT CARD>     IORDER(8)=12                                                               
 INPUT CARD>     IORDER(9)=13                                                               
 INPUT CARD>     IORDER(10)=14                                                              
 INPUT CARD>     IORDER(11)=15                                                              
 INPUT CARD>     IORDER(12)=16                                                              
 INPUT CARD>     IORDER(13)=17                                                              
 INPUT CARD>     IORDER(14)=18                                                              
 INPUT CARD>     IORDER(15)=21                                                              
 INPUT CARD>     IORDER(16)=28                                                              
 INPUT CARD>     IORDER(17)=29                                                              
 INPUT CARD>     IORDER(18)=30                                                              
 INPUT CARD>     IORDER(29)=7                                                               
 INPUT CARD>     IORDER(28)=8                                                               
 INPUT CARD>     IORDER(30)=10                                                              
 INPUT CARD>     IORDER(21)=11                                                              
 INPUT CARD>     IORDER(13)=17                                                              
 INPUT CARD>     PRTMO=.T.                                                                  
 INPUT CARD>                                                                                
 INPUT CARD> $END                                                                           
 INPUT CARD>                                                                                
 INPUT CARD> $SCF DIRSCF=.TRUE. $END                                                        
 INPUT CARD>                                                                                
 INPUT CARD>! $MCSCF                                                                        
 INPUT CARD>!      CISTEP=GUGA                                                              
 INPUT CARD>! $END                                                                          
 INPUT CARD>                                                                                
 INPUT CARD> $CIDRT                                                                         
 1000000000 WORDS OF MEMORY AVAILABLE


     RUN TITLE
     ---------
 BeH2 calculation                                                                

 THE POINT GROUP OF THE MOLECULE IS C1      
 THE ORDER OF THE PRINCIPAL AXIS IS     0

 ATOM      ATOMIC                      COORDINATES (BOHR)
           CHARGE         X                   Y                   Z
 BE          4.0     0.0000000000        0.0000000000        0.0000000000
 H           1.0     0.0000000000        0.0000000000        2.5065325501
 H           1.0     0.0000000000        0.0000000000       -2.5065325501

          INTERNUCLEAR DISTANCES (ANGS.)
          ------------------------------

                1 BE         2 H          3 H     

   1 BE      0.0000000    1.3264000 *  1.3264000 *
   2 H       1.3264000 *  0.0000000    2.6528000 *
   3 H       1.3264000 *  2.6528000 *  0.0000000  

  * ... LESS THAN  3.000


     ATOMIC BASIS SET
     ----------------
 THE CONTRACTED PRIMITIVE FUNCTIONS HAVE BEEN UNNORMALIZED
 THE CONTRACTED BASIS FUNCTIONS ARE NOW NORMALIZED TO UNITY

  SHELL TYPE  PRIMITIVE        EXPONENT          CONTRACTION COEFFICIENT(S)

 BE        

      1   S       1            15.9658770    0.000689999755
      1   S       2             7.3673610   -0.000376999866
      1   S       3             3.3996260    0.024068991438
      1   S       4             1.5687380   -0.111988960163
      1   S       5             0.7238850   -0.076441972808
      1   S       6             0.3340320    0.135743951713
      1   S       7             0.1541370    0.418514851126
      1   S       8             0.0711260    0.462923835329
      1   S       9             0.0328210    0.128265954373

      2   P      10            16.5549420    0.000340999822
      2   P      11             7.5260500    0.003227998312
      2   P      12             3.4214210    0.017659990768
      2   P      13             1.5554140    0.038663979788
      2   P      14             0.7071080    0.098638948434
      2   P      15             0.3214580    0.231258879104
      2   P      16             0.1461380    0.387108797630
      2   P      17             0.0664360    0.339447822546
      2   P      18             0.0302030    0.089101953420

      3   S      19             0.3451840    1.000000000000

      4   S      20             0.0536140    1.000000000000

      5   S      21             0.0214460    1.000000000000

      6   P      22             1.3520430    1.000000000000

      7   P      23             0.2258420    1.000000000000

      8   P      24             0.0903370    1.000000000000

      9   D      25             0.3826920    1.000000000000

     10   D      26             0.1763990    1.000000000000

     11   D      27             0.0705600    1.000000000000

     12   F      28             0.3234520    1.000000000000

     13   F      29             0.1293810    1.000000000000

 H         

     14   S      30            23.8431850    0.004114899701
     14   S      31            10.2124430    0.010464399240
     14   S      32             4.3741640    0.028011097966
     14   S      33             1.8735290    0.075886194491
     14   S      34             0.8024650    0.182106186780
     14   S      35             0.3437090    0.348521374698
     14   S      36             0.1472170    0.378231272542
     14   S      37             0.0630550    0.116424091548

     15   S      38             0.0292920    1.000000000000

     16   S      39             0.0917910    1.000000000000

     17   S      40             0.2876370    1.000000000000

     18   P      41             0.1061050    1.000000000000

     19   P      42             0.3939540    1.000000000000

     20   P      43             1.4626940    1.000000000000

     21   D      44             0.2958830    1.000000000000

     22   D      45             1.0658410    1.000000000000

 H         

     23   S      46            23.8431850    0.004114899701
     23   S      47            10.2124430    0.010464399240
     23   S      48             4.3741640    0.028011097966
     23   S      49             1.8735290    0.075886194491
     23   S      50             0.8024650    0.182106186780
     23   S      51             0.3437090    0.348521374698
     23   S      52             0.1472170    0.378231272542
     23   S      53             0.0630550    0.116424091548

     24   S      54             0.0292920    1.000000000000

     25   S      55             0.0917910    1.000000000000

     26   S      56             0.2876370    1.000000000000

     27   P      57             0.1061050    1.000000000000

     28   P      58             0.3939540    1.000000000000

     29   P      59             1.4626940    1.000000000000

     30   D      60             0.2958830    1.000000000000

     31   D      61             1.0658410    1.000000000000

 TOTAL NUMBER OF BASIS SET SHELLS             =   31
 NUMBER OF CARTESIAN GAUSSIAN BASIS FUNCTIONS =  104
 NOTE: THIS RUN WILL RESTRICT THE MO VARIATION SPACE TO SPHERICAL HARMONICS.
 THE NUMBER OF ORBITALS KEPT IN THE VARIATIONAL SPACE WILL BE PRINTED LATER.
 NUMBER OF ELECTRONS                          =    6
 CHARGE OF MOLECULE                           =    0
 SPIN MULTIPLICITY                            =    1
 NUMBER OF OCCUPIED ORBITALS (ALPHA)          =    3
 NUMBER OF OCCUPIED ORBITALS (BETA )          =    3
 TOTAL NUMBER OF ATOMS                        =    3
 THE NUCLEAR REPULSION ENERGY IS        3.3911388861
 NOTE THIS RUN IS USING CORE POTENTIALS, AND THE NUMBER OF ELECTRONS,
 OCCUPIED ORBITALS, AND NUCLEAR REPULSION ENERGY WILL BE ADJUSTED BELOW
 AFTER REMOVAL OF THE CORE CHARGES.

 THIS MOLECULE IS RECOGNIZED AS BEING LINEAR,
 ORBITAL LZ DEGENERACY TOLERANCE ETOLLZ= 1.00E-06

     $CONTRL OPTIONS
     ---------------
 SCFTYP=NONE         RUNTYP=ENERGY       EXETYP=RUN     
 MPLEVL=       0     CITYP =GUGA         CCTYP =NONE         VBTYP =NONE    
 DFTTYP=NONE         TDDFT =NONE    
 MULT  =       1     ICHARG=       0     NZVAR =       0     COORD =UNIQUE  
 PP    =READ         RELWFN=NONE         LOCAL =NONE         NUMGRD=       F
 ISPHER=       1     NOSYM =       0     MAXIT =     200     UNITS =ANGS    
 PLTORB=       F     MOLPLT=       F     AIMPAC=       F     FRIEND=        
 NPRINT=       7     IREST =       0     GEOM  =INPUT   
 NORMF =       0     NORMP =       0     ITOL  =      20     ICUT  =       9
 INTTYP=BEST         GRDTYP=BEST         QMTTOL= 1.0E-06

     $SYSTEM OPTIONS
     ---------------
  REPLICATED MEMORY=  1000000000 WORDS (ON EVERY NODE).
 DISTRIBUTED MEMDDI=        1000 MILLION WORDS IN AGGREGATE,
 MEMDDI DISTRIBUTED OVER   4 PROCESSORS IS   250000000 WORDS/PROCESSOR.
 TOTAL MEMORY REQUESTED ON EACH PROCESSOR=  1250000000 WORDS.
 TIMLIM=      525600.00 MINUTES, OR     365.0 DAYS.
 PARALL= T  BALTYP=  DLB     KDIAG=    0  COREFL= F
 MXSEQ2=     300 MXSEQ3=     150  mem10=         0

          --------------
          ECP POTENTIALS
          --------------

 PARAMETERS FOR "BE-CCECP" ON ATOM    1 WITH ZCORE   2 AND LMAX  1 ARE
 FOR L= 1      COEFF    N           ZETA
    1        2.00000    1       17.94900
    2       35.89800    3       24.13200
    3      -12.77500    2       20.13800
    4       -2.96001    2        4.33317
 FOR L= 0      COEFF    N           ZETA
    1       12.66392    2        2.48740

 PARAMETERS FOR "H-CCECP " ON ATOM    2 WITH ZCORE   0 AND LMAX  1 ARE
 FOR L= 1      COEFF    N           ZETA
    1        1.00000    1       21.24360
    2       21.24360    3       21.24360
    3      -10.85192    2       21.77697
 FOR L= 0      COEFF    N           ZETA
    1        0.00000    2        1.00000

 PARAMETERS FOR "H-CCECP " ON ATOM    3 ARE THE SAME AS ATOM   2

 THE ECP RUN REMOVES    2 CORE ELECTRONS, AND THE SAME NUMBER OF PROTONS.
 NUMBER OF ELECTRONS KEPT IN THE CALCULATION IS =    4
 NUMBER OF OCCUPIED ORBITALS (ALPHA) KEPT IS    =    2
 NUMBER OF OCCUPIED ORBITALS (BETA ) KEPT IS    =    2
 THE ADJUSTED NUCLEAR REPULSION ENERGY=        1.7953088221
          ECP ANGULAR INTS.........     0.01 SECONDS

          ----------------
          PROPERTIES INPUT
          ----------------

     MOMENTS            FIELD           POTENTIAL          DENSITY
 IEMOM =       1   IEFLD =       0   IEPOT =       0   IEDEN =       0
 WHERE =COMASS     WHERE =NUCLEI     WHERE =NUCLEI     WHERE =NUCLEI  
 OUTPUT=BOTH       OUTPUT=BOTH       OUTPUT=BOTH       OUTPUT=BOTH    
 IEMINT=       0   IEFINT=       0                     IEDINT=       0
                                                       MORB  =       0
          EXTRAPOLATION IN EFFECT
          SOSCF IN EFFECT
 ORBITAL PRINTING OPTION: NPREO=     1   104     2     1

     -------------------------------
     INTEGRAL TRANSFORMATION OPTIONS
     -------------------------------
     NWORD  =            0
     CUTOFF = 1.0E-09     MPTRAN =       0
     DIRTRF =       T     AOINTS =DUP     

          ----------------------
          INTEGRAL INPUT OPTIONS
          ----------------------
 NOPK  =       1 NORDER=       0 SCHWRZ=       T

     ------------------------------------------
     THE POINT GROUP IS C1 , NAXIS= 0, ORDER= 1
     ------------------------------------------

 -- VARIATIONAL SPACE WILL BE RESTRICTED TO PURE SPHERICAL HARMONICS ONLY --
 AFTER EXCLUDING CONTAMINANT COMBINATIONS FROM THE CARTESIAN GAUSSIAN BASIS
 SET, THE NUMBER OF SPHERICAL HARMONICS KEPT IN THE VARIATION SPACE IS   91

     DIMENSIONS OF THE SYMMETRY SUBSPACES ARE
 A   =   91

 ..... DONE SETTING UP THE RUN .....
 CPU     0: STEP CPU TIME=     1.06 TOTAL CPU TIME=          1.1 (      0.0 MIN)
 TOTAL WALL CLOCK TIME=          1.8 SECONDS, CPU UTILIZATION IS    57.92%

          ********************
          1 ELECTRON INTEGRALS
          ********************
 TIME TO DO ORDINARY INTEGRALS=      0.21
 TIME TO DO      ECP INTEGRALS=      0.06
 ...... END OF ONE-ELECTRON INTEGRALS ......
 CPU     0: STEP CPU TIME=     0.31 TOTAL CPU TIME=          1.4 (      0.0 MIN)
 TOTAL WALL CLOCK TIME=          2.1 SECONDS, CPU UTILIZATION IS    64.02%

          -------------
          GUESS OPTIONS
          -------------
          GUESS =MOREAD            NORB  =     104          NORDER=       1
          MIX   =       F          PRTMO =       T          PUNMO =       F
          TOLZ  = 1.0E-08          TOLE  = 1.0E-05
          SYMDEN=       F          PURIFY=       F

 INITIAL GUESS ORBITALS GENERATED BY MOREAD   ROUTINE.

 STATISTICS FOR GENERATION OF SYMMETRY ORBITAL -Q- MATRIX
 NUMBER OF CARTESIAN ATOMIC ORBITALS=        104
 NUMBER OF SPHERICAL CONTAMINANTS DROPPED=    13
 NUMBER OF LINEARLY DEPENDENT MOS DROPPED=     0
 TOTAL NUMBER OF MOS IN VARIATION SPACE=      91
 EIGENVALUES ARE DIAGONAL OF 1E- H IN MO BASIS

 SYMMETRIES FOR INITIAL GUESS ORBITALS FOLLOW.   BOTH SET(S).
     2 ORBITALS ARE OCCUPIED (    0 CORE ORBITALS).
     1=A        2=A        3=A        4=A        5=A        6=A        7=A   
     8=A        9=A       10=A       11=A       12=A       13=A       14=A   
    15=A       16=A       17=A       18=A       19=A       20=A       21=A   
    22=A       23=A       24=A       25=A       26=A       27=A       28=A   
    29=A       30=A       31=A       32=A       33=A       34=A       35=A   
    36=A       37=A       38=A       39=A       40=A       41=A       42=A   
    43=A       44=A       45=A       46=A       47=A       48=A       49=A   
    50=A       51=A       52=A       53=A       54=A       55=A       56=A   
    57=A       58=A       59=A       60=A       61=A       62=A       63=A   
    64=A       65=A       66=A       67=A       68=A       69=A       70=A   
    71=A       72=A       73=A       74=A       75=A       76=A       77=A   
    78=A       79=A       80=A       81=A       82=A       83=A       84=A   
    85=A       86=A       87=A       88=A       89=A       90=A       91=A   

                              ----------------------
                              INITIAL GUESS ORBITALS
                              ----------------------

                      1          2          3          4          5
                   -1.5140    -1.5050    -1.1900    -1.1900    -1.0421
                     A          A          A          A          A   
    1  BE 1  S    0.821383   0.000000   0.000000   0.000000   1.245813
    2  BE 1  X    0.000000   0.000000   0.513209  -0.085947   0.000000
    3  BE 1  Y    0.000000   0.000000   0.085947   0.513209   0.000000
    4  BE 1  Z    0.000000   0.566260   0.000000   0.000000   0.000000
    5  BE 1  S   -0.002076   0.000000   0.000000   0.000000   0.159856
    6  BE 1  S   -0.121475  -0.000000   0.000000   0.000000  -0.555216
    7  BE 1  S   -0.014018   0.000000   0.000000   0.000000  -0.086065
    8  BE 1  X    0.000000   0.000000   0.162437  -0.027203   0.000000
    9  BE 1  Y    0.000000   0.000000   0.027203   0.162437   0.000000
   10  BE 1  Z   -0.000000   0.019135   0.000000   0.000000   0.000000
   11  BE 1  X    0.000000   0.000000   0.699518  -0.117149   0.000000
   12  BE 1  Y    0.000000   0.000000   0.117149   0.699518   0.000000
   13  BE 1  Z   -0.000000   0.161659   0.000000   0.000000  -0.000000
   14  BE 1  X    0.000000   0.000000  -0.212811   0.035640   0.000000
   15  BE 1  Y    0.000000   0.000000  -0.035640  -0.212811   0.000000
   16  BE 1  Z   -0.000000   0.130223   0.000000   0.000000  -0.000000
   17  BE 1 XX   -0.024489   0.000000   0.000000   0.000000   0.066260
   18  BE 1 YY   -0.024489   0.000000   0.000000   0.000000   0.066260
   19  BE 1 ZZ    0.048979   0.000000   0.000000   0.000000  -0.132520
   20  BE 1 XY    0.000000   0.000000   0.000000   0.000000   0.000000
   21  BE 1 XZ    0.000000   0.000000   0.000000   0.000000   0.000000
   22  BE 1 YZ    0.000000   0.000000   0.000000   0.000000   0.000000
   23  BE 1 XX   -0.018019   0.000000   0.000000   0.000000   0.039519
   24  BE 1 YY   -0.018019   0.000000   0.000000   0.000000   0.039519
   25  BE 1 ZZ    0.036038  -0.000000   0.000000   0.000000  -0.079037
   26  BE 1 XY    0.000000   0.000000   0.000000   0.000000   0.000000
   27  BE 1 XZ    0.000000   0.000000   0.000000   0.000000   0.000000
   28  BE 1 YZ    0.000000   0.000000   0.000000   0.000000   0.000000
   29  BE 1 XX   -0.018767   0.000000   0.000000   0.000000   0.020294
   30  BE 1 YY   -0.018767   0.000000   0.000000   0.000000   0.020294
   31  BE 1 ZZ    0.037534  -0.000000   0.000000   0.000000  -0.040587
   32  BE 1 XY    0.000000   0.000000   0.000000   0.000000   0.000000
   33  BE 1 XZ    0.000000   0.000000   0.000000   0.000000   0.000000
   34  BE 1 YZ    0.000000   0.000000   0.000000   0.000000   0.000000
   35  BE 1 XXX   0.000000   0.000000  -0.067304   0.011271   0.000000
   36  BE 1 YYY   0.000000   0.000000  -0.011271  -0.067304   0.000000
   37  BE 1 ZZZ  -0.000000   0.032932   0.000000   0.000000   0.000000
   38  BE 1 XXY   0.000000   0.000000  -0.005041  -0.030099   0.000000
   39  BE 1 XXZ   0.000000  -0.022092   0.000000   0.000000   0.000000
   40  BE 1 YYX   0.000000   0.000000  -0.030099   0.005041   0.000000
   41  BE 1 YYZ   0.000000  -0.022092   0.000000   0.000000   0.000000
   42  BE 1 ZZX   0.000000   0.000000   0.120397  -0.020163   0.000000
   43  BE 1 ZZY   0.000000   0.000000   0.020163   0.120397   0.000000
   44  BE 1 XYZ   0.000000   0.000000   0.000000   0.000000   0.000000
   45  BE 1 XXX   0.000000   0.000000  -0.014414   0.002414   0.000000
   46  BE 1 YYY   0.000000   0.000000  -0.002414  -0.014414   0.000000
   47  BE 1 ZZZ  -0.000000   0.023874   0.000000   0.000000  -0.000000
   48  BE 1 XXY   0.000000   0.000000  -0.001080  -0.006446   0.000000
   49  BE 1 XXZ   0.000000  -0.016015   0.000000   0.000000   0.000000
   50  BE 1 YYX   0.000000   0.000000  -0.006446   0.001080   0.000000
   51  BE 1 YYZ   0.000000  -0.016015   0.000000   0.000000   0.000000
   52  BE 1 ZZX   0.000000   0.000000   0.025785  -0.004318   0.000000
   53  BE 1 ZZY   0.000000   0.000000   0.004318   0.025785   0.000000
   54  BE 1 XYZ   0.000000   0.000000   0.000000   0.000000   0.000000
   55  H  2  S    0.495710   0.562772   0.000000   0.000000  -0.716782
   56  H  2  S   -0.017212  -0.067615   0.000000   0.000000   0.052798
   57  H  2  S   -0.153064  -0.336592   0.000000   0.000000   0.194077
   58  H  2  S   -0.084059  -0.165912   0.000000   0.000000  -0.006416
   59  H  2  X    0.000000   0.000000  -0.039055   0.006541   0.000000
   60  H  2  Y    0.000000   0.000000  -0.006541  -0.039055   0.000000
   61  H  2  Z    0.021258   0.068276   0.000000   0.000000  -0.051222
   62  H  2  X    0.000000   0.000000  -0.043068   0.007213   0.000000
   63  H  2  Y    0.000000   0.000000  -0.007213  -0.043068   0.000000
   64  H  2  Z    0.004911   0.023543   0.000000   0.000000  -0.053589
   65  H  2  X    0.000000   0.000000   0.017281  -0.002894   0.000000
   66  H  2  Y    0.000000   0.000000   0.002894   0.017281   0.000000
   67  H  2  Z   -0.005760  -0.007548   0.000000   0.000000   0.001655
   68  H  2 XX    0.001948   0.002872   0.000000   0.000000  -0.008158
   69  H  2 YY    0.001948   0.002872   0.000000   0.000000  -0.008158
   70  H  2 ZZ   -0.003896  -0.005745   0.000000   0.000000   0.016316
   71  H  2 XY    0.000000   0.000000   0.000000   0.000000   0.000000
   72  H  2 XZ    0.000000   0.000000   0.047642  -0.007979   0.000000
   73  H  2 YZ    0.000000   0.000000   0.007979   0.047642   0.000000
   74  H  2 XX   -0.000775  -0.000982   0.000000   0.000000  -0.000443
   75  H  2 YY   -0.000775  -0.000982   0.000000   0.000000  -0.000443
   76  H  2 ZZ    0.001550   0.001964   0.000000   0.000000   0.000886
   77  H  2 XY    0.000000   0.000000   0.000000   0.000000   0.000000
   78  H  2 XZ    0.000000   0.000000  -0.005119   0.000857   0.000000
   79  H  2 YZ    0.000000   0.000000  -0.000857  -0.005119   0.000000
   80  H  3  S    0.495710  -0.562772   0.000000   0.000000  -0.716782
   81  H  3  S   -0.017212   0.067615   0.000000   0.000000   0.052798
   82  H  3  S   -0.153064   0.336592   0.000000   0.000000   0.194077
   83  H  3  S   -0.084059   0.165912   0.000000   0.000000  -0.006416
   84  H  3  X    0.000000   0.000000  -0.039055   0.006541   0.000000
   85  H  3  Y    0.000000   0.000000  -0.006541  -0.039055   0.000000
   86  H  3  Z   -0.021258   0.068276   0.000000   0.000000   0.051222
   87  H  3  X    0.000000   0.000000  -0.043068   0.007213   0.000000
   88  H  3  Y    0.000000   0.000000  -0.007213  -0.043068   0.000000
   89  H  3  Z   -0.004911   0.023543   0.000000   0.000000   0.053589
   90  H  3  X    0.000000   0.000000   0.017281  -0.002894   0.000000
   91  H  3  Y    0.000000   0.000000   0.002894   0.017281   0.000000
   92  H  3  Z    0.005760  -0.007548   0.000000   0.000000  -0.001655
   93  H  3 XX    0.001948  -0.002872   0.000000   0.000000  -0.008158
   94  H  3 YY    0.001948  -0.002872   0.000000   0.000000  -0.008158
   95  H  3 ZZ   -0.003896   0.005745   0.000000   0.000000   0.016316
   96  H  3 XY    0.000000   0.000000   0.000000   0.000000   0.000000
   97  H  3 XZ    0.000000   0.000000  -0.047642   0.007979   0.000000
   98  H  3 YZ    0.000000   0.000000  -0.007979  -0.047642   0.000000
   99  H  3 XX   -0.000775   0.000982   0.000000   0.000000  -0.000443
  100  H  3 YY   -0.000775   0.000982   0.000000   0.000000  -0.000443
  101  H  3 ZZ    0.001550  -0.001964   0.000000   0.000000   0.000886
  102  H  3 XY    0.000000   0.000000   0.000000   0.000000   0.000000
  103  H  3 XZ    0.000000   0.000000   0.005119  -0.000857   0.000000
  104  H  3 YZ    0.000000   0.000000   0.000857   0.005119   0.000000

                      6          7          8          9         10
                   -0.8667    -0.7782    -0.6443    -0.6443    -0.6433
                     A          A          A          A          A   
    1  BE 1  S   -0.000000   1.317069   0.000000   0.000000   0.000000
    2  BE 1  X    0.000000   0.000000  -0.316075   0.043618   0.000000
    3  BE 1  Y    0.000000   0.000000  -0.043618  -0.316075   0.000000
    4  BE 1  Z    1.840983   0.000000   0.000000   0.000000   1.204131
    5  BE 1  S   -0.000000   0.422962   0.000000   0.000000   0.000000
    6  BE 1  S    0.000000  -0.626205   0.000000   0.000000  -0.000000
    7  BE 1  S    0.000000   0.017964   0.000000   0.000000  -0.000000
    8  BE 1  X    0.000000   0.000000   0.261261  -0.036054   0.000000
    9  BE 1  Y    0.000000   0.000000   0.036054   0.261261   0.000000
   10  BE 1  Z    0.027798   0.000000   0.000000   0.000000  -0.090935
   11  BE 1  X    0.000000   0.000000   1.240654  -0.171209   0.000000
   12  BE 1  Y    0.000000   0.000000   0.171209   1.240654   0.000000
   13  BE 1  Z    0.968549   0.000000   0.000000   0.000000  -1.071303
   14  BE 1  X    0.000000   0.000000  -0.690178   0.095244   0.000000
   15  BE 1  Y    0.000000   0.000000  -0.095244  -0.690178   0.000000
   16  BE 1  Z    0.089151   0.000000   0.000000   0.000000  -1.065986
   17  BE 1 XX    0.000000  -0.040793   0.000000   0.000000   0.000000
   18  BE 1 YY    0.000000  -0.040793   0.000000   0.000000   0.000000
   19  BE 1 ZZ   -0.000000   0.081586   0.000000   0.000000   0.000000
   20  BE 1 XY    0.000000   0.000000   0.000000   0.000000   0.000000
   21  BE 1 XZ    0.000000   0.000000   0.000000   0.000000   0.000000
   22  BE 1 YZ    0.000000   0.000000   0.000000   0.000000   0.000000
   23  BE 1 XX    0.000000  -0.007274   0.000000   0.000000   0.000000
   24  BE 1 YY    0.000000  -0.007274   0.000000   0.000000   0.000000
   25  BE 1 ZZ   -0.000000   0.014549   0.000000   0.000000  -0.000000
   26  BE 1 XY    0.000000   0.000000   0.000000   0.000000   0.000000
   27  BE 1 XZ    0.000000   0.000000   0.000000   0.000000   0.000000
   28  BE 1 YZ    0.000000   0.000000   0.000000   0.000000   0.000000
   29  BE 1 XX    0.000000  -0.104287   0.000000   0.000000   0.000000
   30  BE 1 YY    0.000000  -0.104287   0.000000   0.000000   0.000000
   31  BE 1 ZZ   -0.000000   0.208574   0.000000   0.000000  -0.000000
   32  BE 1 XY    0.000000   0.000000   0.000000   0.000000   0.000000
   33  BE 1 XZ    0.000000   0.000000   0.000000   0.000000   0.000000
   34  BE 1 YZ    0.000000   0.000000   0.000000   0.000000   0.000000
   35  BE 1 XXX   0.000000   0.000000  -0.077059   0.010634   0.000000
   36  BE 1 YYY   0.000000   0.000000  -0.010634  -0.077059   0.000000
   37  BE 1 ZZZ   0.199910   0.000000   0.000000   0.000000  -0.220173
   38  BE 1 XXY   0.000000   0.000000  -0.004756  -0.034462   0.000000
   39  BE 1 XXZ  -0.134104  -0.000000   0.000000   0.000000   0.147696
   40  BE 1 YYX   0.000000   0.000000  -0.034462   0.004756   0.000000
   41  BE 1 YYZ  -0.134104  -0.000000   0.000000   0.000000   0.147696
   42  BE 1 ZZX   0.000000   0.000000   0.137848  -0.019023   0.000000
   43  BE 1 ZZY   0.000000   0.000000   0.019023   0.137848   0.000000
   44  BE 1 XYZ   0.000000   0.000000   0.000000   0.000000   0.000000
   45  BE 1 XXX   0.000000   0.000000   0.039260  -0.005418   0.000000
   46  BE 1 YYY   0.000000   0.000000   0.005418   0.039260   0.000000
   47  BE 1 ZZZ   0.063205   0.000000   0.000000   0.000000  -0.187771
   48  BE 1 XXY   0.000000   0.000000   0.002423   0.017558   0.000000
   49  BE 1 XXZ  -0.042399  -0.000000   0.000000   0.000000   0.125960
   50  BE 1 YYX   0.000000   0.000000   0.017558  -0.002423   0.000000
   51  BE 1 YYZ  -0.042399  -0.000000   0.000000   0.000000   0.125960
   52  BE 1 ZZX   0.000000   0.000000  -0.070230   0.009692   0.000000
   53  BE 1 ZZY   0.000000   0.000000  -0.009692  -0.070230   0.000000
   54  BE 1 XYZ   0.000000   0.000000   0.000000   0.000000   0.000000
   55  H  2  S   -0.239064   0.342127   0.000000   0.000000  -0.795374
   56  H  2  S   -0.258825  -0.088294   0.000000   0.000000   0.097645
   57  H  2  S   -1.406592  -1.059766   0.000000   0.000000   1.861177
   58  H  2  S   -0.816858   0.106291   0.000000   0.000000   0.233458
   59  H  2  X    0.000000   0.000000  -0.316206   0.043636   0.000000
   60  H  2  Y    0.000000   0.000000  -0.043636  -0.316206   0.000000
   61  H  2  Z    0.230094   0.084736   0.000000   0.000000  -0.568743
   62  H  2  X    0.000000   0.000000  -0.193947   0.026764   0.000000
   63  H  2  Y    0.000000   0.000000  -0.026764  -0.193947   0.000000
   64  H  2  Z    0.123226  -0.131326   0.000000   0.000000  -0.157395
   65  H  2  X    0.000000   0.000000   0.010093  -0.001393   0.000000
   66  H  2  Y    0.000000   0.000000   0.001393   0.010093   0.000000
   67  H  2  Z   -0.025801  -0.014312   0.000000   0.000000   0.007294
   68  H  2 XX    0.003294  -0.005924   0.000000   0.000000  -0.006215
   69  H  2 YY    0.003294  -0.005924   0.000000   0.000000  -0.006215
   70  H  2 ZZ   -0.006588   0.011848   0.000000   0.000000   0.012431
   71  H  2 XY    0.000000   0.000000   0.000000   0.000000   0.000000
   72  H  2 XZ    0.000000   0.000000   0.085189  -0.011756   0.000000
   73  H  2 YZ    0.000000   0.000000   0.011756   0.085189   0.000000
   74  H  2 XX   -0.001948  -0.005876   0.000000   0.000000   0.002112
   75  H  2 YY   -0.001948  -0.005876   0.000000   0.000000   0.002112
   76  H  2 ZZ    0.003897   0.011752   0.000000   0.000000  -0.004225
   77  H  2 XY    0.000000   0.000000   0.000000   0.000000   0.000000
   78  H  2 XZ    0.000000   0.000000  -0.002517   0.000347   0.000000
   79  H  2 YZ    0.000000   0.000000  -0.000347  -0.002517   0.000000
   80  H  3  S    0.239064   0.342127   0.000000   0.000000   0.795374
   81  H  3  S    0.258825  -0.088294   0.000000   0.000000  -0.097645
   82  H  3  S    1.406592  -1.059766   0.000000   0.000000  -1.861177
   83  H  3  S    0.816858   0.106291   0.000000   0.000000  -0.233458
   84  H  3  X    0.000000   0.000000  -0.316206   0.043636   0.000000
   85  H  3  Y    0.000000   0.000000  -0.043636  -0.316206   0.000000
   86  H  3  Z    0.230094  -0.084736   0.000000   0.000000  -0.568743
   87  H  3  X    0.000000   0.000000  -0.193947   0.026764   0.000000
   88  H  3  Y    0.000000   0.000000  -0.026764  -0.193947   0.000000
   89  H  3  Z    0.123226   0.131326   0.000000   0.000000  -0.157395
   90  H  3  X    0.000000   0.000000   0.010093  -0.001393   0.000000
   91  H  3  Y    0.000000   0.000000   0.001393   0.010093   0.000000
   92  H  3  Z   -0.025801   0.014312   0.000000   0.000000   0.007294
   93  H  3 XX   -0.003294  -0.005924   0.000000   0.000000   0.006215
   94  H  3 YY   -0.003294  -0.005924   0.000000   0.000000   0.006215
   95  H  3 ZZ    0.006588   0.011848   0.000000   0.000000  -0.012431
   96  H  3 XY    0.000000   0.000000   0.000000   0.000000   0.000000
   97  H  3 XZ    0.000000   0.000000  -0.085189   0.011756   0.000000
   98  H  3 YZ    0.000000   0.000000  -0.011756  -0.085189   0.000000
   99  H  3 XX    0.001948  -0.005876   0.000000   0.000000  -0.002112
  100  H  3 YY    0.001948  -0.005876   0.000000   0.000000  -0.002112
  101  H  3 ZZ   -0.003897   0.011752   0.000000   0.000000   0.004225
  102  H  3 XY    0.000000   0.000000   0.000000   0.000000   0.000000
  103  H  3 XZ    0.000000   0.000000   0.002517  -0.000347   0.000000
  104  H  3 YZ    0.000000   0.000000   0.000347   0.002517   0.000000

                     11         12         13         14         15
                   -0.5171    -0.5171    -0.5190    -0.4446    -0.4355
                     A          A          A          A          A   
    1  BE 1  S    0.000000   0.000000  -0.830704  -0.000000  -0.883128
    2  BE 1  X    1.216297   0.217823   0.000000   0.000000   0.000000
    3  BE 1  Y   -0.217823   1.216297   0.000000   0.000000   0.000000
    4  BE 1  Z    0.000000   0.000000  -0.000000  -0.592770  -0.000000
    5  BE 1  S    0.000000   0.000000  -0.303143   0.000000  -0.436674
    6  BE 1  S    0.000000   0.000000   2.915373   0.000000  -1.269174
    7  BE 1  S    0.000000   0.000000   1.533266   0.000000  -1.311304
    8  BE 1  X   -0.178841  -0.032028   0.000000   0.000000   0.000000
    9  BE 1  Y    0.032028  -0.178841   0.000000   0.000000   0.000000
   10  BE 1  Z    0.000000   0.000000   0.000000   0.204429   0.000000
   11  BE 1  X   -0.908001  -0.162611   0.000000   0.000000   0.000000
   12  BE 1  Y    0.162611  -0.908001   0.000000   0.000000   0.000000
   13  BE 1  Z    0.000000   0.000000  -0.000000   3.433939   0.000000
   14  BE 1  X    1.247045   0.223330   0.000000   0.000000   0.000000
   15  BE 1  Y   -0.223330   1.247045   0.000000   0.000000   0.000000
   16  BE 1  Z    0.000000   0.000000  -0.000000  -2.440601   0.000000
   17  BE 1 XX    0.000000   0.000000  -0.055846   0.000000   0.004268
   18  BE 1 YY    0.000000   0.000000  -0.055846   0.000000   0.004268
   19  BE 1 ZZ    0.000000   0.000000   0.111692   0.000000  -0.008536
   20  BE 1 XY    0.000000   0.000000   0.000000   0.000000   0.000000
   21  BE 1 XZ    0.000000   0.000000   0.000000   0.000000   0.000000
   22  BE 1 YZ    0.000000   0.000000   0.000000   0.000000   0.000000
   23  BE 1 XX    0.000000   0.000000  -0.135992   0.000000   0.078410
   24  BE 1 YY    0.000000   0.000000  -0.135992   0.000000   0.078410
   25  BE 1 ZZ    0.000000   0.000000   0.271985   0.000000  -0.156821
   26  BE 1 XY    0.000000   0.000000   0.000000   0.000000   0.000000
   27  BE 1 XZ    0.000000   0.000000   0.000000   0.000000   0.000000
   28  BE 1 YZ    0.000000   0.000000   0.000000   0.000000   0.000000
   29  BE 1 XX    0.000000   0.000000   0.183380   0.000000   0.355849
   30  BE 1 YY    0.000000   0.000000   0.183380   0.000000   0.355849
   31  BE 1 ZZ    0.000000   0.000000  -0.366760   0.000000  -0.711699
   32  BE 1 XY    0.000000   0.000000   0.000000   0.000000   0.000000
   33  BE 1 XZ    0.000000   0.000000   0.000000   0.000000   0.000000
   34  BE 1 YZ    0.000000   0.000000   0.000000   0.000000   0.000000
   35  BE 1 XXX   0.083123   0.014886   0.000000   0.000000   0.000000
   36  BE 1 YYY  -0.014886   0.083123   0.000000   0.000000   0.000000
   37  BE 1 ZZZ   0.000000   0.000000  -0.000000   0.490522   0.000000
   38  BE 1 XXY  -0.006657   0.037174   0.000000   0.000000   0.000000
   39  BE 1 XXZ   0.000000   0.000000   0.000000  -0.329052  -0.000000
   40  BE 1 YYX   0.037174   0.006657   0.000000   0.000000   0.000000
   41  BE 1 YYZ   0.000000   0.000000   0.000000  -0.329052  -0.000000
   42  BE 1 ZZX  -0.148696  -0.026629   0.000000   0.000000   0.000000
   43  BE 1 ZZY   0.026629  -0.148696   0.000000   0.000000   0.000000
   44  BE 1 XYZ   0.000000   0.000000   0.000000   0.000000   0.000000
   45  BE 1 XXX   0.102828   0.018415   0.000000   0.000000   0.000000
   46  BE 1 YYY  -0.018415   0.102828   0.000000   0.000000   0.000000
   47  BE 1 ZZZ   0.000000   0.000000  -0.000000   0.052097   0.000000
   48  BE 1 XXY  -0.008236   0.045986   0.000000   0.000000   0.000000
   49  BE 1 XXZ   0.000000   0.000000   0.000000  -0.034947  -0.000000
   50  BE 1 YYX   0.045986   0.008236   0.000000   0.000000   0.000000
   51  BE 1 YYZ   0.000000   0.000000   0.000000  -0.034947  -0.000000
   52  BE 1 ZZX  -0.183945  -0.032942   0.000000   0.000000   0.000000
   53  BE 1 ZZY   0.032942  -0.183945   0.000000   0.000000   0.000000
   54  BE 1 XYZ   0.000000   0.000000   0.000000   0.000000   0.000000
   55  H  2  S    0.000000   0.000000   0.442741  -0.187046  -0.034756
   56  H  2  S    0.000000   0.000000  -1.283168   0.808473  -0.101468
   57  H  2  S    0.000000   0.000000  -1.054846   1.127924   2.335479
   58  H  2  S    0.000000   0.000000  -0.062813  -1.486074  -0.157207
   59  H  2  X   -0.936498  -0.167715   0.000000   0.000000   0.000000
   60  H  2  Y    0.167715  -0.936498   0.000000   0.000000   0.000000
   61  H  2  Z    0.000000   0.000000  -0.151012   0.770470  -0.237946
   62  H  2  X   -0.102092  -0.018283   0.000000   0.000000   0.000000
   63  H  2  Y    0.018283  -0.102092   0.000000   0.000000   0.000000
   64  H  2  Z    0.000000   0.000000   0.000954   0.627367   0.142088
   65  H  2  X   -0.021702  -0.003887   0.000000   0.000000   0.000000
   66  H  2  Y    0.003887  -0.021702   0.000000   0.000000   0.000000
   67  H  2  Z    0.000000   0.000000  -0.013110  -0.032748   0.009110
   68  H  2 XX    0.000000   0.000000   0.007154   0.041770   0.009980
   69  H  2 YY    0.000000   0.000000   0.007154   0.041770   0.009980
   70  H  2 ZZ    0.000000   0.000000  -0.014307  -0.083540  -0.019959
   71  H  2 XY    0.000000   0.000000   0.000000   0.000000   0.000000
   72  H  2 XZ   -0.042130  -0.007545   0.000000   0.000000   0.000000
   73  H  2 YZ    0.007545  -0.042130   0.000000   0.000000   0.000000
   74  H  2 XX    0.000000   0.000000  -0.000094  -0.001650   0.007370
   75  H  2 YY    0.000000   0.000000  -0.000094  -0.001650   0.007370
   76  H  2 ZZ    0.000000   0.000000   0.000189   0.003300  -0.014740
   77  H  2 XY    0.000000   0.000000   0.000000   0.000000   0.000000
   78  H  2 XZ    0.001420   0.000254   0.000000   0.000000   0.000000
   79  H  2 YZ   -0.000254   0.001420   0.000000   0.000000   0.000000
   80  H  3  S    0.000000   0.000000   0.442741   0.187046  -0.034756
   81  H  3  S    0.000000   0.000000  -1.283168  -0.808473  -0.101468
   82  H  3  S    0.000000   0.000000  -1.054846  -1.127924   2.335479
   83  H  3  S    0.000000   0.000000  -0.062813   1.486074  -0.157207
   84  H  3  X   -0.936498  -0.167715   0.000000   0.000000   0.000000
   85  H  3  Y    0.167715  -0.936498   0.000000   0.000000   0.000000
   86  H  3  Z    0.000000   0.000000   0.151012   0.770470   0.237946
   87  H  3  X   -0.102092  -0.018283   0.000000   0.000000   0.000000
   88  H  3  Y    0.018283  -0.102092   0.000000   0.000000   0.000000
   89  H  3  Z    0.000000   0.000000  -0.000954   0.627367  -0.142088
   90  H  3  X   -0.021702  -0.003887   0.000000   0.000000   0.000000
   91  H  3  Y    0.003887  -0.021702   0.000000   0.000000   0.000000
   92  H  3  Z    0.000000   0.000000   0.013110  -0.032748  -0.009110
   93  H  3 XX    0.000000   0.000000   0.007154  -0.041770   0.009980
   94  H  3 YY    0.000000   0.000000   0.007154  -0.041770   0.009980
   95  H  3 ZZ    0.000000   0.000000  -0.014307   0.083540  -0.019959
   96  H  3 XY    0.000000   0.000000   0.000000   0.000000   0.000000
   97  H  3 XZ    0.042130   0.007545   0.000000   0.000000   0.000000
   98  H  3 YZ   -0.007545   0.042130   0.000000   0.000000   0.000000
   99  H  3 XX    0.000000   0.000000  -0.000094   0.001650   0.007370
  100  H  3 YY    0.000000   0.000000  -0.000094   0.001650   0.007370
  101  H  3 ZZ    0.000000   0.000000   0.000189  -0.003300  -0.014740
  102  H  3 XY    0.000000   0.000000   0.000000   0.000000   0.000000
  103  H  3 XZ   -0.001420  -0.000254   0.000000   0.000000   0.000000
  104  H  3 YZ    0.000254  -0.001420   0.000000   0.000000   0.000000

                     16         17         18         19         20
                   -0.3213    -0.2970    -0.2970    -0.4401    -0.4401
                     A          A          A          A          A   
    1  BE 1  S   -0.000000   0.000000   0.000000   0.000000   0.000000
    2  BE 1  X    0.000000   7.218563  -0.885361   0.000000   0.000000
    3  BE 1  Y    0.000000   0.885361   7.218563   0.000000   0.000000
    4  BE 1  Z    2.863784   0.000000   0.000000   0.000000   0.000000
    5  BE 1  S   -0.000000   0.000000   0.000000   0.000000   0.000000
    6  BE 1  S   -0.000000   0.000000   0.000000   0.000000   0.000000
    7  BE 1  S   -0.000000   0.000000   0.000000   0.000000   0.000000
    8  BE 1  X    0.000000  -0.722682   0.088637   0.000000   0.000000
    9  BE 1  Y    0.000000  -0.088637  -0.722682   0.000000   0.000000
   10  BE 1  Z   -0.372269   0.000000   0.000000   0.000000   0.000000
   11  BE 1  X    0.000000  -3.402247   0.417288   0.000000   0.000000
   12  BE 1  Y    0.000000  -0.417288  -3.402247   0.000000   0.000000
   13  BE 1  Z   -5.346907   0.000000   0.000000   0.000000   0.000000
   14  BE 1  X    0.000000  -6.345674   0.778301   0.000000   0.000000
   15  BE 1  Y    0.000000  -0.778301  -6.345674   0.000000   0.000000
   16  BE 1  Z    5.352440   0.000000   0.000000   0.000000   0.000000
   17  BE 1 XX    0.000000   0.000000   0.000000   0.000000   0.000000
   18  BE 1 YY    0.000000   0.000000   0.000000   0.000000   0.000000
   19  BE 1 ZZ   -0.000000   0.000000   0.000000   0.000000   0.000000
   20  BE 1 XY    0.000000   0.000000   0.000000   0.000000   0.000000
   21  BE 1 XZ    0.000000   0.000000   0.000000   0.000000   0.000000
   22  BE 1 YZ    0.000000   0.000000   0.000000   0.000000   0.000000
   23  BE 1 XX    0.000000   0.000000   0.000000   0.000000   0.000000
   24  BE 1 YY    0.000000   0.000000   0.000000   0.000000   0.000000
   25  BE 1 ZZ   -0.000000   0.000000   0.000000   0.000000   0.000000
   26  BE 1 XY    0.000000   0.000000   0.000000   0.000000   0.000000
   27  BE 1 XZ    0.000000   0.000000   0.000000   0.000000   0.000000
   28  BE 1 YZ    0.000000   0.000000   0.000000   0.000000   0.000000
   29  BE 1 XX    0.000000   0.000000   0.000000   0.000000   0.000000
   30  BE 1 YY    0.000000   0.000000   0.000000   0.000000   0.000000
   31  BE 1 ZZ   -0.000000   0.000000   0.000000   0.000000   0.000000
   32  BE 1 XY    0.000000   0.000000   0.000000   0.000000   0.000000
   33  BE 1 XZ    0.000000   0.000000   0.000000   0.000000   0.000000
   34  BE 1 YZ    0.000000   0.000000   0.000000   0.000000   0.000000
   35  BE 1 XXX   0.000000   0.157610  -0.019331   0.000000   0.000000
   36  BE 1 YYY   0.000000   0.019331   0.157610   0.000000   0.000000
   37  BE 1 ZZZ  -0.572767   0.000000   0.000000   0.000000   0.000000
   38  BE 1 XXY   0.000000   0.008645   0.070485   0.000000   0.000000
   39  BE 1 XXZ   0.384224   0.000000   0.000000   0.000007   0.025011
   40  BE 1 YYX  -0.000000   0.070485  -0.008645   0.000000   0.000000
   41  BE 1 YYZ   0.384224   0.000000   0.000000  -0.000007  -0.025011
   42  BE 1 ZZX   0.000000  -0.281941   0.034580   0.000000   0.000000
   43  BE 1 ZZY   0.000000  -0.034580  -0.281941   0.000000   0.000000
   44  BE 1 XYZ   0.000000   0.000000   0.000000   0.028880  -0.000008
   45  BE 1 XXX   0.000000   0.380180  -0.046629   0.000000   0.000000
   46  BE 1 YYY  -0.000000   0.046629   0.380180   0.000000   0.000000
   47  BE 1 ZZZ   0.374751   0.000000   0.000000   0.000000   0.000000
   48  BE 1 XXY   0.000000   0.020853   0.170022   0.000000   0.000000
   49  BE 1 XXZ  -0.251391   0.000000   0.000000   0.000237   0.810083
   50  BE 1 YYX  -0.000000   0.170022  -0.020853   0.000000   0.000000
   51  BE 1 YYZ  -0.251391   0.000000   0.000000  -0.000237  -0.810083
   52  BE 1 ZZX   0.000000  -0.680087   0.083413   0.000000   0.000000
   53  BE 1 ZZY   0.000000  -0.083413  -0.680087   0.000000   0.000000
   54  BE 1 XYZ   0.000000   0.000000   0.000000   0.935403  -0.000273
   55  H  2  S    0.627357   0.000000   0.000000   0.000000   0.000000
   56  H  2  S    1.782266   0.000000   0.000000   0.000000   0.000000
   57  H  2  S   -6.775418   0.000000   0.000000   0.000000   0.000000
   58  H  2  S    2.005247   0.000000   0.000000   0.000000   0.000000
   59  H  2  X    0.000000   1.375729  -0.168734   0.000000   0.000000
   60  H  2  Y    0.000000   0.168734   1.375729   0.000000   0.000000
   61  H  2  Z   -0.037892   0.000000   0.000000   0.000000   0.000000
   62  H  2  X    0.000000   0.224828  -0.027575   0.000000   0.000000
   63  H  2  Y    0.000000   0.027575   0.224828   0.000000   0.000000
   64  H  2  Z   -0.971940   0.000000   0.000000   0.000000   0.000000
   65  H  2  X    0.000000  -0.038607   0.004735   0.000000   0.000000
   66  H  2  Y    0.000000  -0.004735  -0.038607   0.000000   0.000000
   67  H  2  Z    0.044419   0.000000   0.000000   0.000000   0.000000
   68  H  2 XX   -0.100639   0.000000   0.000000   0.000010   0.033563
   69  H  2 YY   -0.100639   0.000000   0.000000  -0.000010  -0.033563
   70  H  2 ZZ    0.201278   0.000000   0.000000   0.000000   0.000000
   71  H  2 XY    0.000000   0.000000   0.000000   0.038755  -0.000011
   72  H  2 XZ    0.000000  -0.223642   0.027430   0.000000   0.000000
   73  H  2 YZ    0.000000  -0.027430  -0.223642   0.000000   0.000000
   74  H  2 XX   -0.001798   0.000000   0.000000   0.000003   0.009530
   75  H  2 YY   -0.001798   0.000000   0.000000  -0.000003  -0.009530
   76  H  2 ZZ    0.003597   0.000000   0.000000   0.000000   0.000000
   77  H  2 XY    0.000000   0.000000   0.000000   0.011004  -0.000003
   78  H  2 XZ    0.000000   0.003508  -0.000430   0.000000   0.000000
   79  H  2 YZ    0.000000   0.000430   0.003508   0.000000   0.000000
   80  H  3  S   -0.627357   0.000000   0.000000   0.000000   0.000000
   81  H  3  S   -1.782266   0.000000   0.000000   0.000000   0.000000
   82  H  3  S    6.775418   0.000000   0.000000   0.000000   0.000000
   83  H  3  S   -2.005247   0.000000   0.000000   0.000000   0.000000
   84  H  3  X    0.000000   1.375729  -0.168734   0.000000   0.000000
   85  H  3  Y    0.000000   0.168734   1.375729   0.000000   0.000000
   86  H  3  Z   -0.037892   0.000000   0.000000   0.000000   0.000000
   87  H  3  X    0.000000   0.224828  -0.027575   0.000000   0.000000
   88  H  3  Y    0.000000   0.027575   0.224828   0.000000   0.000000
   89  H  3  Z   -0.971940   0.000000   0.000000   0.000000   0.000000
   90  H  3  X    0.000000  -0.038607   0.004735   0.000000   0.000000
   91  H  3  Y    0.000000  -0.004735  -0.038607   0.000000   0.000000
   92  H  3  Z    0.044419   0.000000   0.000000   0.000000   0.000000
   93  H  3 XX    0.100639   0.000000   0.000000  -0.000010  -0.033563
   94  H  3 YY    0.100639   0.000000   0.000000   0.000010   0.033563
   95  H  3 ZZ   -0.201278   0.000000   0.000000   0.000000   0.000000
   96  H  3 XY    0.000000   0.000000   0.000000  -0.038755   0.000011
   97  H  3 XZ    0.000000   0.223642  -0.027430   0.000000   0.000000
   98  H  3 YZ    0.000000   0.027430   0.223642   0.000000   0.000000
   99  H  3 XX    0.001798   0.000000   0.000000  -0.000003  -0.009530
  100  H  3 YY    0.001798   0.000000   0.000000   0.000003   0.009530
  101  H  3 ZZ   -0.003597   0.000000   0.000000   0.000000   0.000000
  102  H  3 XY    0.000000   0.000000   0.000000  -0.011004   0.000003
  103  H  3 XZ    0.000000  -0.003508   0.000430   0.000000   0.000000
  104  H  3 YZ    0.000000  -0.000430  -0.003508   0.000000   0.000000

                     21         22         23         24         25
                   -0.6844    -0.4335    -0.4335    -0.3900    -0.3900
                     A          A          A          A          A   
    1  BE 1  S    0.000000   0.000000   0.000000   0.000000   0.000000
    2  BE 1  X    0.000000   0.000000   0.000000   0.000000  -0.000000
    3  BE 1  Y    0.000000   0.000000   0.000000   0.000000   0.000000
    4  BE 1  Z    0.000000   0.000000   0.000000  -0.000000   0.000000
    5  BE 1  S    0.000000   0.000000   0.000000   0.000000   0.000000
    6  BE 1  S    0.000000   0.000000   0.000000   0.000000   0.000000
    7  BE 1  S    0.000000   0.000000   0.000000   0.000000   0.000000
    8  BE 1  X    0.000000   0.000000   0.000000  -0.000000   0.000000
    9  BE 1  Y    0.000000   0.000000   0.000000  -0.000000  -0.000000
   10  BE 1  Z    0.000000   0.000000   0.000000   0.000000   0.000000
   11  BE 1  X    0.000000   0.000000   0.000000   0.000000   0.000000
   12  BE 1  Y    0.000000   0.000000   0.000000  -0.000000   0.000000
   13  BE 1  Z    0.000000   0.000000   0.000000   0.000000   0.000000
   14  BE 1  X    0.000000   0.000000   0.000000  -0.000000  -0.000000
   15  BE 1  Y    0.000000   0.000000   0.000000   0.000000  -0.000000
   16  BE 1  Z    0.000000   0.000000   0.000000   0.000000   0.000000
   17  BE 1 XX   -0.119847   0.000000   0.000000   0.000000   0.000000
   18  BE 1 YY    0.119847   0.000000   0.000000   0.000000   0.000000
   19  BE 1 ZZ    0.000000   0.000000   0.000000   0.000000   0.000000
   20  BE 1 XY    0.007022   0.000000   0.000000   0.000000   0.000000
   21  BE 1 XZ    0.000000  -0.141173   0.081362   0.000000   0.000000
   22  BE 1 YZ    0.000000  -0.081362  -0.141173   0.000000   0.000000
   23  BE 1 XX   -0.414372   0.000000   0.000000   0.000000   0.000000
   24  BE 1 YY    0.414372   0.000000   0.000000   0.000000   0.000000
   25  BE 1 ZZ    0.000000   0.000000   0.000000   0.000000   0.000000
   26  BE 1 XY    0.024278   0.000000   0.000000   0.000000   0.000000
   27  BE 1 XZ    0.000000  -0.571629   0.329446   0.000000   0.000000
   28  BE 1 YZ    0.000000  -0.329446  -0.571629   0.000000   0.000000
   29  BE 1 XX   -0.397282   0.000000   0.000000   0.000000   0.000000
   30  BE 1 YY    0.397282   0.000000   0.000000   0.000000   0.000000
   31  BE 1 ZZ    0.000000   0.000000   0.000000   0.000000   0.000000
   32  BE 1 XY    0.023277   0.000000   0.000000   0.000000   0.000000
   33  BE 1 XZ    0.000000   1.474063  -0.849545   0.000000   0.000000
   34  BE 1 YZ    0.000000   0.849545   1.474063   0.000000   0.000000
   35  BE 1 XXX   0.000000   0.000000   0.000000  -0.010844  -0.000699
   36  BE 1 YYY   0.000000   0.000000   0.000000   0.000699  -0.010844
   37  BE 1 ZZZ   0.000000   0.000000   0.000000   0.000000   0.000000
   38  BE 1 XXY   0.000000   0.000000   0.000000  -0.000938   0.014549
   39  BE 1 XXZ   0.000000   0.000000   0.000000  -0.000000   0.000000
   40  BE 1 YYX   0.000000   0.000000   0.000000   0.014549   0.000938
   41  BE 1 YYZ   0.000000   0.000000   0.000000  -0.000000   0.000000
   42  BE 1 ZZX   0.000000   0.000000   0.000000  -0.000000   0.000000
   43  BE 1 ZZY   0.000000   0.000000   0.000000  -0.000000  -0.000000
   44  BE 1 XYZ   0.000000   0.000000   0.000000   0.000000   0.000000
   45  BE 1 XXX   0.000000   0.000000   0.000000  -0.782019  -0.050406
   46  BE 1 YYY   0.000000   0.000000   0.000000   0.050406  -0.782019
   47  BE 1 ZZZ   0.000000   0.000000   0.000000   0.000000   0.000000
   48  BE 1 XXY   0.000000   0.000000   0.000000  -0.067627   1.049188
   49  BE 1 XXZ   0.000000   0.000000   0.000000  -0.000000   0.000000
   50  BE 1 YYX   0.000000   0.000000   0.000000   1.049188   0.067627
   51  BE 1 YYZ   0.000000   0.000000   0.000000  -0.000000   0.000000
   52  BE 1 ZZX   0.000000   0.000000   0.000000   0.000000   0.000000
   53  BE 1 ZZY   0.000000   0.000000   0.000000  -0.000000   0.000000
   54  BE 1 XYZ   0.000000   0.000000   0.000000   0.000000   0.000000
   55  H  2  S    0.000000   0.000000   0.000000  -0.000000   0.000000
   56  H  2  S    0.000000   0.000000   0.000000   0.000000   0.000000
   57  H  2  S    0.000000   0.000000   0.000000  -0.000000   0.000000
   58  H  2  S    0.000000   0.000000   0.000000  -0.000000   0.000000
   59  H  2  X    0.000000  -0.394287   0.227239   0.000000   0.000000
   60  H  2  Y    0.000000  -0.227239  -0.394287  -0.000000   0.000000
   61  H  2  Z    0.000000   0.000000   0.000000   0.000000   0.000000
   62  H  2  X    0.000000  -0.062815   0.036202   0.000000   0.000000
   63  H  2  Y    0.000000  -0.036202  -0.062815  -0.000000   0.000000
   64  H  2  Z    0.000000   0.000000   0.000000   0.000000   0.000000
   65  H  2  X    0.000000  -0.014192   0.008179   0.000000   0.000000
   66  H  2  Y    0.000000  -0.008179  -0.014192  -0.000000   0.000000
   67  H  2  Z    0.000000   0.000000   0.000000  -0.000000   0.000000
   68  H  2 XX   -0.043939   0.000000   0.000000   0.000000   0.000000
   69  H  2 YY    0.043939   0.000000   0.000000   0.000000   0.000000
   70  H  2 ZZ    0.000000   0.000000   0.000000  -0.000000   0.000000
   71  H  2 XY    0.002574   0.000000   0.000000   0.000000   0.000000
   72  H  2 XZ    0.000000   0.017591  -0.010138  -0.000000   0.000000
   73  H  2 YZ    0.000000   0.010138   0.017591  -0.000000  -0.000000
   74  H  2 XX   -0.001881   0.000000   0.000000   0.000000   0.000000
   75  H  2 YY    0.001881   0.000000   0.000000   0.000000   0.000000
   76  H  2 ZZ    0.000000   0.000000   0.000000   0.000000   0.000000
   77  H  2 XY    0.000110   0.000000   0.000000   0.000000   0.000000
   78  H  2 XZ    0.000000   0.008213  -0.004733   0.000000   0.000000
   79  H  2 YZ    0.000000   0.004733   0.008213   0.000000   0.000000
   80  H  3  S    0.000000   0.000000   0.000000   0.000000   0.000000
   81  H  3  S    0.000000   0.000000   0.000000  -0.000000   0.000000
   82  H  3  S    0.000000   0.000000   0.000000   0.000000   0.000000
   83  H  3  S    0.000000   0.000000   0.000000   0.000000   0.000000
   84  H  3  X    0.000000   0.394287  -0.227239   0.000000   0.000000
   85  H  3  Y    0.000000   0.227239   0.394287  -0.000000   0.000000
   86  H  3  Z    0.000000   0.000000   0.000000   0.000000   0.000000
   87  H  3  X    0.000000   0.062815  -0.036202   0.000000   0.000000
   88  H  3  Y    0.000000   0.036202   0.062815  -0.000000   0.000000
   89  H  3  Z    0.000000   0.000000   0.000000   0.000000   0.000000
   90  H  3  X    0.000000   0.014192  -0.008179   0.000000   0.000000
   91  H  3  Y    0.000000   0.008179   0.014192  -0.000000   0.000000
   92  H  3  Z    0.000000   0.000000   0.000000  -0.000000   0.000000
   93  H  3 XX   -0.043939   0.000000   0.000000  -0.000000   0.000000
   94  H  3 YY    0.043939   0.000000   0.000000  -0.000000   0.000000
   95  H  3 ZZ    0.000000   0.000000   0.000000   0.000000   0.000000
   96  H  3 XY    0.002574   0.000000   0.000000   0.000000   0.000000
   97  H  3 XZ    0.000000   0.017591  -0.010138   0.000000  -0.000000
   98  H  3 YZ    0.000000   0.010138   0.017591   0.000000   0.000000
   99  H  3 XX   -0.001881   0.000000   0.000000   0.000000   0.000000
  100  H  3 YY    0.001881   0.000000   0.000000   0.000000   0.000000
  101  H  3 ZZ    0.000000   0.000000   0.000000   0.000000   0.000000
  102  H  3 XY    0.000110   0.000000   0.000000   0.000000   0.000000
  103  H  3 XZ    0.000000   0.008213  -0.004733   0.000000   0.000000
  104  H  3 YZ    0.000000   0.004733   0.008213   0.000000   0.000000

                     26         27         28         29         30
                   -0.3700    -0.3700    -0.8001    -0.8001    -0.6844
                     A          A          A          A          A   
    1  BE 1  S    0.000000   0.000000   0.000000   0.000000   0.000000
    2  BE 1  X    0.000000   0.000000   0.000000   0.000000   0.000000
    3  BE 1  Y    0.000000   0.000000   0.000000   0.000000   0.000000
    4  BE 1  Z    0.000000   0.000000   0.000000   0.000000   0.000000
    5  BE 1  S    0.000000   0.000000   0.000000   0.000000   0.000000
    6  BE 1  S    0.000000   0.000000   0.000000   0.000000   0.000000
    7  BE 1  S    0.000000   0.000000   0.000000   0.000000   0.000000
    8  BE 1  X    0.000000   0.000000   0.000000   0.000000   0.000000
    9  BE 1  Y    0.000000   0.000000   0.000000   0.000000   0.000000
   10  BE 1  Z    0.000000   0.000000   0.000000   0.000000   0.000000
   11  BE 1  X    0.000000   0.000000   0.000000   0.000000   0.000000
   12  BE 1  Y    0.000000   0.000000   0.000000   0.000000   0.000000
   13  BE 1  Z    0.000000   0.000000   0.000000   0.000000   0.000000
   14  BE 1  X    0.000000   0.000000   0.000000   0.000000   0.000000
   15  BE 1  Y    0.000000   0.000000   0.000000   0.000000   0.000000
   16  BE 1  Z    0.000000   0.000000   0.000000   0.000000   0.000000
   17  BE 1 XX   -0.114043  -0.003490   0.000000   0.000000   0.006081
   18  BE 1 YY    0.114043   0.003490   0.000000   0.000000  -0.006081
   19  BE 1 ZZ    0.000000   0.000000   0.000000   0.000000   0.000000
   20  BE 1 XY    0.004030  -0.131686   0.000000   0.000000   0.138387
   21  BE 1 XZ    0.000000   0.000000  -0.070064   0.142202   0.000000
   22  BE 1 YZ    0.000000   0.000000   0.142202   0.070064   0.000000
   23  BE 1 XX   -0.913072  -0.027940   0.000000   0.000000   0.021025
   24  BE 1 YY    0.913072   0.027940   0.000000   0.000000  -0.021025
   25  BE 1 ZZ    0.000000   0.000000   0.000000   0.000000   0.000000
   26  BE 1 XY    0.032262  -1.054325   0.000000   0.000000   0.478476
   27  BE 1 XZ    0.000000   0.000000  -0.173308   0.351749   0.000000
   28  BE 1 YZ    0.000000   0.000000   0.351749   0.173308   0.000000
   29  BE 1 XX    1.112536   0.034043   0.000000   0.000000   0.020158
   30  BE 1 YY   -1.112536  -0.034043   0.000000   0.000000  -0.020158
   31  BE 1 ZZ    0.000000   0.000000   0.000000   0.000000   0.000000
   32  BE 1 XY   -0.039310   1.284646   0.000000   0.000000   0.458742
   33  BE 1 XZ    0.000000   0.000000  -0.042583   0.086427   0.000000
   34  BE 1 YZ    0.000000   0.000000   0.086427   0.042583   0.000000
   35  BE 1 XXX   0.000000   0.000000   0.000000   0.000000   0.000000
   36  BE 1 YYY   0.000000   0.000000   0.000000   0.000000   0.000000
   37  BE 1 ZZZ   0.000000   0.000000   0.000000   0.000000   0.000000
   38  BE 1 XXY   0.000000   0.000000   0.000000   0.000000   0.000000
   39  BE 1 XXZ   0.000000   0.000000   0.000000   0.000000   0.000000
   40  BE 1 YYX   0.000000   0.000000   0.000000   0.000000   0.000000
   41  BE 1 YYZ   0.000000   0.000000   0.000000   0.000000   0.000000
   42  BE 1 ZZX   0.000000   0.000000   0.000000   0.000000   0.000000
   43  BE 1 ZZY   0.000000   0.000000   0.000000   0.000000   0.000000
   44  BE 1 XYZ   0.000000   0.000000   0.000000   0.000000   0.000000
   45  BE 1 XXX   0.000000   0.000000   0.000000   0.000000   0.000000
   46  BE 1 YYY   0.000000   0.000000   0.000000   0.000000   0.000000
   47  BE 1 ZZZ   0.000000   0.000000   0.000000   0.000000   0.000000
   48  BE 1 XXY   0.000000   0.000000   0.000000   0.000000   0.000000
   49  BE 1 XXZ   0.000000   0.000000   0.000000   0.000000   0.000000
   50  BE 1 YYX   0.000000   0.000000   0.000000   0.000000   0.000000
   51  BE 1 YYZ   0.000000   0.000000   0.000000   0.000000   0.000000
   52  BE 1 ZZX   0.000000   0.000000   0.000000   0.000000   0.000000
   53  BE 1 ZZY   0.000000   0.000000   0.000000   0.000000   0.000000
   54  BE 1 XYZ   0.000000   0.000000   0.000000   0.000000   0.000000
   55  H  2  S    0.000000   0.000000   0.000000   0.000000   0.000000
   56  H  2  S    0.000000   0.000000   0.000000   0.000000   0.000000
   57  H  2  S    0.000000   0.000000   0.000000   0.000000   0.000000
   58  H  2  S    0.000000   0.000000   0.000000   0.000000   0.000000
   59  H  2  X    0.000000   0.000000  -0.103378   0.209818   0.000000
   60  H  2  Y    0.000000   0.000000   0.209818   0.103378   0.000000
   61  H  2  Z    0.000000   0.000000   0.000000   0.000000   0.000000
   62  H  2  X    0.000000   0.000000  -0.061067   0.123942   0.000000
   63  H  2  Y    0.000000   0.000000   0.123942   0.061067   0.000000
   64  H  2  Z    0.000000   0.000000   0.000000   0.000000   0.000000
   65  H  2  X    0.000000   0.000000  -0.007740   0.015710   0.000000
   66  H  2  Y    0.000000   0.000000   0.015710   0.007740   0.000000
   67  H  2  Z    0.000000   0.000000   0.000000   0.000000   0.000000
   68  H  2 XX   -0.020307  -0.000621   0.000000   0.000000   0.002229
   69  H  2 YY    0.020307   0.000621   0.000000   0.000000  -0.002229
   70  H  2 ZZ    0.000000   0.000000   0.000000   0.000000   0.000000
   71  H  2 XY    0.000718  -0.023449   0.000000   0.000000   0.050736
   72  H  2 XZ    0.000000   0.000000   0.000269  -0.000545   0.000000
   73  H  2 YZ    0.000000   0.000000  -0.000545  -0.000269   0.000000
   74  H  2 XX   -0.003291  -0.000101   0.000000   0.000000   0.000095
   75  H  2 YY    0.003291   0.000101   0.000000   0.000000  -0.000095
   76  H  2 ZZ    0.000000   0.000000   0.000000   0.000000   0.000000
   77  H  2 XY    0.000116  -0.003800   0.000000   0.000000   0.002172
   78  H  2 XZ    0.000000   0.000000   0.003513  -0.007129   0.000000
   79  H  2 YZ    0.000000   0.000000  -0.007129  -0.003513   0.000000
   80  H  3  S    0.000000   0.000000   0.000000   0.000000   0.000000
   81  H  3  S    0.000000   0.000000   0.000000   0.000000   0.000000
   82  H  3  S    0.000000   0.000000   0.000000   0.000000   0.000000
   83  H  3  S    0.000000   0.000000   0.000000   0.000000   0.000000
   84  H  3  X    0.000000   0.000000   0.103378  -0.209818   0.000000
   85  H  3  Y    0.000000   0.000000  -0.209818  -0.103378   0.000000
   86  H  3  Z    0.000000   0.000000   0.000000   0.000000   0.000000
   87  H  3  X    0.000000   0.000000   0.061067  -0.123942   0.000000
   88  H  3  Y    0.000000   0.000000  -0.123942  -0.061067   0.000000
   89  H  3  Z    0.000000   0.000000   0.000000   0.000000   0.000000
   90  H  3  X    0.000000   0.000000   0.007740  -0.015710   0.000000
   91  H  3  Y    0.000000   0.000000  -0.015710  -0.007740   0.000000
   92  H  3  Z    0.000000   0.000000   0.000000   0.000000   0.000000
   93  H  3 XX   -0.020307  -0.000621   0.000000   0.000000   0.002229
   94  H  3 YY    0.020307   0.000621   0.000000   0.000000  -0.002229
   95  H  3 ZZ    0.000000   0.000000   0.000000   0.000000   0.000000
   96  H  3 XY    0.000718  -0.023449   0.000000   0.000000   0.050736
   97  H  3 XZ    0.000000   0.000000   0.000269  -0.000545   0.000000
   98  H  3 YZ    0.000000   0.000000  -0.000545  -0.000269   0.000000
   99  H  3 XX   -0.003291  -0.000101   0.000000   0.000000   0.000095
  100  H  3 YY    0.003291   0.000101   0.000000   0.000000  -0.000095
  101  H  3 ZZ    0.000000   0.000000   0.000000   0.000000   0.000000
  102  H  3 XY    0.000116  -0.003800   0.000000   0.000000   0.002172
  103  H  3 XZ    0.000000   0.000000   0.003513  -0.007129   0.000000
  104  H  3 YZ    0.000000   0.000000  -0.007129  -0.003513   0.000000

                     31         32         33         34         35
                   -0.3177    -0.3070    -0.2898    -0.2898    -0.2186
                     A          A          A          A          A   
    1  BE 1  S   -0.296994   0.365928   0.000000   0.000000   1.211270
    2  BE 1  X    0.000000   0.000000   0.000000   0.000000   0.000000
    3  BE 1  Y    0.000000   0.000000   0.000000   0.000000   0.000000
    4  BE 1  Z   -0.000000  -0.000000   0.000000   0.000000   0.000000
    5  BE 1  S   -0.465862   0.188232   0.000000   0.000000   0.847854
    6  BE 1  S   15.893763   7.904684   0.000000   0.000000  17.244865
    7  BE 1  S    1.510224   9.761391   0.000000   0.000000  -0.734767
    8  BE 1  X    0.000000   0.000000   0.000000   0.000000   0.000000
    9  BE 1  Y    0.000000   0.000000   0.000000   0.000000   0.000000
   10  BE 1  Z    0.000000   0.000000   0.000000   0.000000  -0.000000
   11  BE 1  X    0.000000   0.000000   0.000000   0.000000   0.000000
   12  BE 1  Y    0.000000   0.000000   0.000000   0.000000   0.000000
   13  BE 1  Z    0.000000   0.000000   0.000000   0.000000  -0.000000
   14  BE 1  X    0.000000   0.000000   0.000000   0.000000   0.000000
   15  BE 1  Y    0.000000   0.000000   0.000000   0.000000   0.000000
   16  BE 1  Z    0.000000   0.000000   0.000000   0.000000  -0.000000
   17  BE 1 XX   -0.090838   0.151708   0.000000   0.000000   0.228830
   18  BE 1 YY   -0.090838   0.151708   0.000000   0.000000   0.228830
   19  BE 1 ZZ    0.181677  -0.303416   0.000000   0.000000  -0.457659
   20  BE 1 XY    0.000000   0.000000   0.000000   0.000000   0.000000
   21  BE 1 XZ    0.000000   0.000000   0.032971   0.029574   0.000000
   22  BE 1 YZ    0.000000   0.000000  -0.029574   0.032971   0.000000
   23  BE 1 XX   -0.738456   0.139491   0.000000   0.000000   0.041619
   24  BE 1 YY   -0.738456   0.139491   0.000000   0.000000   0.041619
   25  BE 1 ZZ    1.476912  -0.278982   0.000000   0.000000  -0.083239
   26  BE 1 XY    0.000000   0.000000   0.000000   0.000000   0.000000
   27  BE 1 XZ    0.000000   0.000000   1.116587   1.001529   0.000000
   28  BE 1 YZ    0.000000   0.000000  -1.001529   1.116587   0.000000
   29  BE 1 XX   -2.901556  -1.004542   0.000000   0.000000  -1.301349
   30  BE 1 YY   -2.901556  -1.004542   0.000000   0.000000  -1.301349
   31  BE 1 ZZ    5.803113   2.009084   0.000000   0.000000   2.602699
   32  BE 1 XY    0.000000   0.000000   0.000000   0.000000   0.000000
   33  BE 1 XZ    0.000000   0.000000   2.392380   2.145858   0.000000
   34  BE 1 YZ    0.000000   0.000000  -2.145858   2.392380   0.000000
   35  BE 1 XXX   0.000000   0.000000   0.000000   0.000000   0.000000
   36  BE 1 YYY   0.000000   0.000000   0.000000   0.000000   0.000000
   37  BE 1 ZZZ   0.000000   0.000000   0.000000   0.000000  -0.000000
   38  BE 1 XXY   0.000000   0.000000   0.000000   0.000000   0.000000
   39  BE 1 XXZ  -0.000000  -0.000000   0.000000   0.000000   0.000000
   40  BE 1 YYX   0.000000   0.000000   0.000000   0.000000   0.000000
   41  BE 1 YYZ  -0.000000  -0.000000   0.000000   0.000000   0.000000
   42  BE 1 ZZX   0.000000   0.000000   0.000000   0.000000   0.000000
   43  BE 1 ZZY   0.000000   0.000000   0.000000   0.000000   0.000000
   44  BE 1 XYZ   0.000000   0.000000   0.000000   0.000000   0.000000
   45  BE 1 XXX   0.000000   0.000000   0.000000   0.000000   0.000000
   46  BE 1 YYY   0.000000   0.000000   0.000000   0.000000   0.000000
   47  BE 1 ZZZ   0.000000   0.000000   0.000000   0.000000  -0.000000
   48  BE 1 XXY   0.000000   0.000000   0.000000   0.000000   0.000000
   49  BE 1 XXZ  -0.000000  -0.000000   0.000000   0.000000   0.000000
   50  BE 1 YYX   0.000000   0.000000   0.000000   0.000000   0.000000
   51  BE 1 YYZ  -0.000000  -0.000000   0.000000   0.000000   0.000000
   52  BE 1 ZZX   0.000000   0.000000   0.000000   0.000000   0.000000
   53  BE 1 ZZY   0.000000   0.000000   0.000000   0.000000   0.000000
   54  BE 1 XYZ   0.000000   0.000000   0.000000   0.000000   0.000000
   55  H  2  S   -0.066910  -0.468714   0.000000   0.000000  -0.438118
   56  H  2  S   -2.193615  -7.269102   0.000000   0.000000  -2.041616
   57  H  2  S   -8.325242  -2.799036   0.000000   0.000000  -9.342859
   58  H  2  S   -1.364918   0.658831   0.000000   0.000000   1.602596
   59  H  2  X    0.000000   0.000000  -2.660734  -2.386560   0.000000
   60  H  2  Y    0.000000   0.000000   2.386560  -2.660734   0.000000
   61  H  2  Z   -1.482328   0.673093   0.000000   0.000000   2.048208
   62  H  2  X    0.000000   0.000000  -0.136965  -0.122851   0.000000
   63  H  2  Y    0.000000   0.000000   0.122851  -0.136965   0.000000
   64  H  2  Z    0.270142  -0.102928   0.000000   0.000000  -0.524687
   65  H  2  X    0.000000   0.000000   0.003174   0.002847   0.000000
   66  H  2  Y    0.000000   0.000000  -0.002847   0.003174   0.000000
   67  H  2  Z   -0.047100   0.017880   0.000000   0.000000   0.015005
   68  H  2 XX   -0.011064  -0.012562   0.000000   0.000000  -0.029270
   69  H  2 YY   -0.011064  -0.012562   0.000000   0.000000  -0.029270
   70  H  2 ZZ    0.022128   0.025124   0.000000   0.000000   0.058541
   71  H  2 XY    0.000000   0.000000   0.000000   0.000000   0.000000
   72  H  2 XZ    0.000000   0.000000   0.063825   0.057248   0.000000
   73  H  2 YZ    0.000000   0.000000  -0.057248   0.063825   0.000000
   74  H  2 XX    0.010153  -0.006682   0.000000   0.000000  -0.028718
   75  H  2 YY    0.010153  -0.006682   0.000000   0.000000  -0.028718
   76  H  2 ZZ   -0.020306   0.013364   0.000000   0.000000   0.057436
   77  H  2 XY    0.000000   0.000000   0.000000   0.000000   0.000000
   78  H  2 XZ    0.000000   0.000000  -0.011029  -0.009893   0.000000
   79  H  2 YZ    0.000000   0.000000   0.009893  -0.011029   0.000000
   80  H  3  S   -0.066910  -0.468714   0.000000   0.000000  -0.438118
   81  H  3  S   -2.193615  -7.269102   0.000000   0.000000  -2.041616
   82  H  3  S   -8.325242  -2.799036   0.000000   0.000000  -9.342859
   83  H  3  S   -1.364918   0.658831   0.000000   0.000000   1.602596
   84  H  3  X    0.000000   0.000000   2.660734   2.386560   0.000000
   85  H  3  Y    0.000000   0.000000  -2.386560   2.660734   0.000000
   86  H  3  Z    1.482328  -0.673093   0.000000   0.000000  -2.048208
   87  H  3  X    0.000000   0.000000   0.136965   0.122851   0.000000
   88  H  3  Y    0.000000   0.000000  -0.122851   0.136965   0.000000
   89  H  3  Z   -0.270142   0.102928   0.000000   0.000000   0.524687
   90  H  3  X    0.000000   0.000000  -0.003174  -0.002847   0.000000
   91  H  3  Y    0.000000   0.000000   0.002847  -0.003174   0.000000
   92  H  3  Z    0.047100  -0.017880   0.000000   0.000000  -0.015005
   93  H  3 XX   -0.011064  -0.012562   0.000000   0.000000  -0.029270
   94  H  3 YY   -0.011064  -0.012562   0.000000   0.000000  -0.029270
   95  H  3 ZZ    0.022128   0.025124   0.000000   0.000000   0.058541
   96  H  3 XY    0.000000   0.000000   0.000000   0.000000   0.000000
   97  H  3 XZ    0.000000   0.000000   0.063825   0.057248   0.000000
   98  H  3 YZ    0.000000   0.000000  -0.057248   0.063825   0.000000
   99  H  3 XX    0.010153  -0.006682   0.000000   0.000000  -0.028718
  100  H  3 YY    0.010153  -0.006682   0.000000   0.000000  -0.028718
  101  H  3 ZZ   -0.020306   0.013364   0.000000   0.000000   0.057436
  102  H  3 XY    0.000000   0.000000   0.000000   0.000000   0.000000
  103  H  3 XZ    0.000000   0.000000  -0.011029  -0.009893   0.000000
  104  H  3 YZ    0.000000   0.000000   0.009893  -0.011029   0.000000

                     36         37         38         39         40
                   -0.1733    -0.1733     0.2574    -0.0576     0.0404
                     A          A          A          A          A   
    1  BE 1  S    0.000000   0.000000   0.000000  -0.000000  -0.717929
    2  BE 1  X    4.562995   1.009404   0.000000   0.000000   0.000000
    3  BE 1  Y   -1.009404   4.562995   0.000000   0.000000   0.000000
    4  BE 1  Z    0.000000   0.000000 -16.323489  -6.062585  -0.000000
    5  BE 1  S    0.000000   0.000000   0.000000   0.000000   0.058693
    6  BE 1  S    0.000000   0.000000  -0.000000  -0.000000  21.502623
    7  BE 1  S    0.000000   0.000000  -0.000000   0.000000   3.841224
    8  BE 1  X   -0.589079  -0.130313   0.000000   0.000000   0.000000
    9  BE 1  Y    0.130313  -0.589079   0.000000   0.000000   0.000000
   10  BE 1  Z    0.000000   0.000000   1.568303   0.592133   0.000000
   11  BE 1  X   -2.549608  -0.564012   0.000000   0.000000   0.000000
   12  BE 1  Y    0.564012  -2.549608   0.000000   0.000000   0.000000
   13  BE 1  Z    0.000000   0.000000  22.805385   5.147591   0.000000
   14  BE 1  X    2.686655   0.594329   0.000000   0.000000   0.000000
   15  BE 1  Y   -0.594329   2.686655   0.000000   0.000000   0.000000
   16  BE 1  Z    0.000000   0.000000  33.847489 -62.644764  -0.000000
   17  BE 1 XX    0.000000   0.000000   0.000000  -0.000000  -0.307404
   18  BE 1 YY    0.000000   0.000000   0.000000  -0.000000  -0.307404
   19  BE 1 ZZ    0.000000   0.000000  -0.000000   0.000000   0.614808
   20  BE 1 XY    0.000000   0.000000   0.000000   0.000000   0.000000
   21  BE 1 XZ    0.000000   0.000000   0.000000   0.000000   0.000000
   22  BE 1 YZ    0.000000   0.000000   0.000000   0.000000   0.000000
   23  BE 1 XX    0.000000   0.000000   0.000000   0.000000   2.077358
   24  BE 1 YY    0.000000   0.000000   0.000000   0.000000   2.077358
   25  BE 1 ZZ    0.000000   0.000000  -0.000000  -0.000000  -4.154715
   26  BE 1 XY    0.000000   0.000000   0.000000   0.000000   0.000000
   27  BE 1 XZ    0.000000   0.000000   0.000000   0.000000   0.000000
   28  BE 1 YZ    0.000000   0.000000   0.000000   0.000000   0.000000
   29  BE 1 XX    0.000000   0.000000   0.000000   0.000000  -3.623508
   30  BE 1 YY    0.000000   0.000000   0.000000   0.000000  -3.623508
   31  BE 1 ZZ    0.000000   0.000000  -0.000000  -0.000000   7.247015
   32  BE 1 XY    0.000000   0.000000   0.000000   0.000000   0.000000
   33  BE 1 XZ    0.000000   0.000000   0.000000   0.000000   0.000000
   34  BE 1 YZ    0.000000   0.000000   0.000000   0.000000   0.000000
   35  BE 1 XXX   0.000604   0.000134   0.000000   0.000000   0.000000
   36  BE 1 YYY  -0.000134   0.000604   0.000000   0.000000   0.000000
   37  BE 1 ZZZ   0.000000   0.000000   2.780108   0.605891   0.000000
   38  BE 1 XXY  -0.000060   0.000270   0.000000   0.000000   0.000000
   39  BE 1 XXZ   0.000000   0.000000  -1.864953  -0.406444  -0.000000
   40  BE 1 YYX   0.000270   0.000060   0.000000   0.000000   0.000000
   41  BE 1 YYZ   0.000000   0.000000  -1.864953  -0.406444  -0.000000
   42  BE 1 ZZX  -0.001080  -0.000239   0.000000   0.000000   0.000000
   43  BE 1 ZZY   0.000239  -0.001080   0.000000   0.000000   0.000000
   44  BE 1 XYZ   0.000000   0.000000   0.000000   0.000000   0.000000
   45  BE 1 XXX  -1.152825  -0.255023   0.000000   0.000000   0.000000
   46  BE 1 YYY   0.255023  -1.152825  -0.000000   0.000000   0.000000
   47  BE 1 ZZZ   0.000000   0.000000   0.549008  -0.691361  -0.000000
   48  BE 1 XXY   0.114050  -0.515559   0.000000   0.000000   0.000000
   49  BE 1 XXZ   0.000000   0.000000  -0.368286   0.463779   0.000000
   50  BE 1 YYX  -0.515559  -0.114050  -0.000000  -0.000000   0.000000
   51  BE 1 YYZ   0.000000   0.000000  -0.368286   0.463779   0.000000
   52  BE 1 ZZX   2.062237   0.456198   0.000000   0.000000   0.000000
   53  BE 1 ZZY  -0.456198   2.062237   0.000000   0.000000   0.000000
   54  BE 1 XYZ   0.000000   0.000000   0.000000   0.000000   0.000000
   55  H  2  S    0.000000   0.000000  -0.252558  -0.010418  -0.047493
   56  H  2  S    0.000000   0.000000   3.572526  -0.831981  -4.071591
   57  H  2  S    0.000000   0.000000 -28.516059  66.835675 -13.258828
   58  H  2  S    0.000000   0.000000  -9.644036  -1.276029   3.531674
   59  H  2  X   -3.492653  -0.772628   0.000000   0.000000   0.000000
[...]
   38  BE 1 XXY  -0.000000   0.000000   0.021843   0.020986   0.000000
   39  BE 1 XXZ   0.000000  -0.403040  -0.000000   0.000000  -0.000003
   40  BE 1 YYX   0.000000   0.000000  -0.020986   0.021843   0.000000
   41  BE 1 YYZ   0.000000  -0.403040  -0.000000   0.000000  -0.000003
   42  BE 1 ZZX  -0.000000  -0.000000   0.083943  -0.087374  -0.000000
   43  BE 1 ZZY   0.000000  -0.000000  -0.087374  -0.083943  -0.000000
   44  BE 1 XYZ   0.000000  -0.000000   0.000000   0.000000  -0.000000
   45  BE 1 XXX   0.000000   0.000000   0.067312  -0.070063  -0.000000
   46  BE 1 YYY  -0.000000   0.000000  -0.070063  -0.067312  -0.000000
   47  BE 1 ZZZ  -0.000000   0.008283  -0.000000  -0.000000   0.000002
   48  BE 1 XXY  -0.000000   0.000000  -0.031333  -0.030103  -0.000000
   49  BE 1 XXZ   0.000000  -0.005557   0.000000   0.000000  -0.000002
   50  BE 1 YYX   0.000000   0.000000   0.030103  -0.031333  -0.000000
   51  BE 1 YYZ   0.000000  -0.005557   0.000000   0.000000  -0.000002
   52  BE 1 ZZX  -0.000000  -0.000000  -0.120411   0.125332   0.000000
   53  BE 1 ZZY   0.000000  -0.000000   0.125332   0.120411   0.000000
   54  BE 1 XYZ   0.000000  -0.000000   0.000000   0.000000  -0.000000
   55  H  2  S    0.282356  -0.159203  -0.000000   0.000000   0.109169
   56  H  2  S   -1.068117   0.463825   0.000000   0.000000  -0.623719
   57  H  2  S   -1.501740   2.109018  -0.000000  -0.000000   1.565231
   58  H  2  S   -0.026492  -1.789409  -0.000000  -0.000000  -0.155852
   59  H  2  X    0.000000   0.000000   0.304771  -0.317226  -0.000000
   60  H  2  Y   -0.000000   0.000000  -0.317226  -0.304771  -0.000000
   61  H  2  Z   -0.069746   0.827947  -0.000000   0.000000  -0.272070
   62  H  2  X    0.000000   0.000000  -0.054662   0.056896   0.000000
   63  H  2  Y   -0.000000   0.000000   0.056896   0.054662  -0.000000
   64  H  2  Z   -0.017340   0.800166   0.000000  -0.000000   0.107342
   65  H  2  X    0.000000   0.000000   0.006575  -0.006844   0.000000
   66  H  2  Y   -0.000000   0.000000  -0.006844  -0.006575  -0.000000
   67  H  2  Z   -0.010899  -0.039337   0.000000  -0.000000   0.001370
   68  H  2 XX    0.003958   0.059364   0.000000  -0.000000   0.010335
   69  H  2 YY    0.003958   0.059364   0.000000  -0.000000   0.010335
   70  H  2 ZZ   -0.007915  -0.118727  -0.000000   0.000000  -0.020671
   71  H  2 XY   -0.000000   0.000000  -0.000000  -0.000000  -0.000000
   72  H  2 XZ   -0.000000  -0.000000   0.026442  -0.027522   0.000000
   73  H  2 YZ    0.000000  -0.000000  -0.027522  -0.026442   0.000000
   74  H  2 XX   -0.001208  -0.001485   0.000000  -0.000000   0.005873
   75  H  2 YY   -0.001208  -0.001485   0.000000  -0.000000   0.005873
   76  H  2 ZZ    0.002416   0.002970  -0.000000   0.000000  -0.011746
   77  H  2 XY   -0.000000   0.000000  -0.000000  -0.000000  -0.000000
   78  H  2 XZ   -0.000000  -0.000000  -0.001856   0.001932   0.000000
   79  H  2 YZ    0.000000  -0.000000   0.001932   0.001856   0.000000
   80  H  3  S    0.282356   0.159202  -0.000000   0.000000   0.109169
   81  H  3  S   -1.068117  -0.463826  -0.000000   0.000000  -0.623720
   82  H  3  S   -1.501739  -2.109019  -0.000000   0.000000   1.565240
   83  H  3  S   -0.026496   1.789410   0.000000  -0.000000  -0.155823
   84  H  3  X   -0.000000   0.000000   0.304771  -0.317226  -0.000000
   85  H  3  Y   -0.000000  -0.000000  -0.317226  -0.304771  -0.000000
   86  H  3  Z    0.069746   0.827947   0.000000  -0.000000   0.272072
   87  H  3  X   -0.000000   0.000000  -0.054662   0.056896  -0.000000
   88  H  3  Y   -0.000000  -0.000000   0.056896   0.054662   0.000000
   89  H  3  Z    0.017339   0.800166  -0.000000   0.000000  -0.107333
   90  H  3  X   -0.000000   0.000000   0.006575  -0.006844  -0.000000
   91  H  3  Y   -0.000000  -0.000000  -0.006844  -0.006575   0.000000
   92  H  3  Z    0.010899  -0.039337   0.000000   0.000000  -0.001370
   93  H  3 XX    0.003958  -0.059364   0.000000   0.000000   0.010335
   94  H  3 YY    0.003958  -0.059364   0.000000   0.000000   0.010335
   95  H  3 ZZ   -0.007915   0.118727  -0.000000  -0.000000  -0.020670
   96  H  3 XY   -0.000000   0.000000  -0.000000  -0.000000  -0.000000
   97  H  3 XZ    0.000000   0.000000  -0.026442   0.027522  -0.000000
   98  H  3 YZ   -0.000000   0.000000   0.027522   0.026442  -0.000000
   99  H  3 XX   -0.001208   0.001485  -0.000000  -0.000000   0.005873
  100  H  3 YY   -0.001208   0.001485  -0.000000  -0.000000   0.005873
  101  H  3 ZZ    0.002416  -0.002970   0.000000   0.000000  -0.011745
  102  H  3 XY   -0.000000   0.000000  -0.000000  -0.000000  -0.000000
  103  H  3 XZ   -0.000000   0.000000   0.001856  -0.001932  -0.000000
  104  H  3 YZ   -0.000000  -0.000000  -0.001932  -0.001856   0.000000

                     16         17         18
                    0.0000     0.0000     0.0000
                     A          A          A   
    1  BE 1  S   -0.000000   0.000000  -0.000000
    2  BE 1  X    0.000000  -3.331366   5.895051
    3  BE 1  Y    0.000000   5.895051   3.331366
    4  BE 1  Z    2.810920   0.000000   0.000000
    5  BE 1  S    0.000000   0.000000   0.000000
    6  BE 1  S   -0.000001   0.000000   0.000000
    7  BE 1  S   -0.000001   0.000000  -0.000000
    8  BE 1  X   -0.000000   0.369035  -0.653025
    9  BE 1  Y   -0.000000  -0.653025  -0.369035
   10  BE 1  Z   -0.330019   0.000000  -0.000000
   11  BE 1  X   -0.000000   1.735344  -3.070792
   12  BE 1  Y   -0.000000  -3.070792  -1.735344
   13  BE 1  Z   -4.586614   0.000000  -0.000000
   14  BE 1  X   -0.000000   2.895805  -5.124302
   15  BE 1  Y   -0.000000  -5.124302  -2.895805
   16  BE 1  Z    4.140031  -0.000000   0.000000
   17  BE 1 XX   -0.000000  -0.000000   0.000000
   18  BE 1 YY   -0.000000  -0.000000   0.000000
   19  BE 1 ZZ    0.000000   0.000000  -0.000000
   20  BE 1 XY   -0.000000  -0.000000   0.000000
   21  BE 1 XZ   -0.000000   0.000000   0.000000
   22  BE 1 YZ    0.000000  -0.000000   0.000000
   23  BE 1 XX    0.000000  -0.000000  -0.000000
   24  BE 1 YY    0.000000  -0.000000  -0.000000
   25  BE 1 ZZ   -0.000000   0.000000   0.000000
   26  BE 1 XY   -0.000000  -0.000000   0.000000
   27  BE 1 XZ   -0.000000   0.000000   0.000000
   28  BE 1 YZ    0.000000  -0.000000   0.000000
   29  BE 1 XX    0.000000  -0.000000   0.000000
   30  BE 1 YY    0.000000  -0.000000   0.000000
   31  BE 1 ZZ   -0.000000   0.000000  -0.000000
   32  BE 1 XY   -0.000000  -0.000000   0.000000
   33  BE 1 XZ   -0.000000   0.000000   0.000000
   34  BE 1 YZ    0.000000  -0.000000   0.000000
   35  BE 1 XXX  -0.000000  -0.081446   0.144122
   36  BE 1 YYY  -0.000000   0.144122   0.081446
   37  BE 1 ZZZ  -0.499451  -0.000000  -0.000000
   38  BE 1 XXY  -0.000000   0.064453   0.036424
   39  BE 1 XXZ   0.335042   0.000000   0.000000
   40  BE 1 YYX  -0.000000  -0.036424   0.064453
   41  BE 1 YYZ   0.335042   0.000000   0.000000
   42  BE 1 ZZX   0.000000   0.145695  -0.257814
   43  BE 1 ZZY   0.000000  -0.257814  -0.145695
   44  BE 1 XYZ   0.000000   0.000000  -0.000000
   45  BE 1 XXX   0.000000  -0.164060   0.290312
   46  BE 1 YYY   0.000000   0.290312   0.164060
   47  BE 1 ZZZ   0.302795  -0.000000  -0.000000
   48  BE 1 XXY   0.000000   0.129832   0.073370
   49  BE 1 XXZ  -0.203121   0.000000   0.000000
   50  BE 1 YYX   0.000000  -0.073370   0.129832
   51  BE 1 YYZ  -0.203121   0.000000   0.000000
   52  BE 1 ZZX  -0.000000   0.293479  -0.519326
   53  BE 1 ZZY  -0.000000  -0.519326  -0.293479
   54  BE 1 XYZ   0.000000   0.000000  -0.000000
   55  H  2  S    0.319079  -0.000000   0.000000
   56  H  2  S    1.873474  -0.000000  -0.000000
   57  H  2  S   -5.462789  -0.000000  -0.000000
   58  H  2  S    1.647130  -0.000000  -0.000000
   59  H  2  X    0.000000  -0.742521   1.313941
   60  H  2  Y    0.000000   1.313941   0.742521
   61  H  2  Z   -0.043805   0.000000   0.000000
   62  H  2  X   -0.000000  -0.142319   0.251833
   63  H  2  Y    0.000000   0.251833   0.142319
   64  H  2  Z   -0.820004   0.000000  -0.000000
   65  H  2  X   -0.000000   0.018415  -0.032582
   66  H  2  Y    0.000000  -0.032582  -0.018415
   67  H  2  Z    0.037472  -0.000000  -0.000000
   68  H  2 XX   -0.086607   0.000000  -0.000000
   69  H  2 YY   -0.086607   0.000000  -0.000000
   70  H  2 ZZ    0.173214  -0.000000   0.000000
   71  H  2 XY   -0.000000   0.000000  -0.000000
   72  H  2 XZ   -0.000000   0.115653  -0.204652
   73  H  2 YZ   -0.000000  -0.204652  -0.115653
   74  H  2 XX   -0.001333  -0.000000  -0.000000
   75  H  2 YY   -0.001333  -0.000000  -0.000000
   76  H  2 ZZ    0.002665   0.000000   0.000000
   77  H  2 XY   -0.000000   0.000000  -0.000000
   78  H  2 XZ    0.000000  -0.001977   0.003498
   79  H  2 YZ   -0.000000   0.003498   0.001977
   80  H  3  S   -0.319079  -0.000000   0.000000
   81  H  3  S   -1.873473  -0.000000   0.000000
   82  H  3  S    5.462791   0.000000   0.000000
   83  H  3  S   -1.647129  -0.000000  -0.000000
   84  H  3  X    0.000000  -0.742521   1.313941
   85  H  3  Y    0.000000   1.313941   0.742521
   86  H  3  Z   -0.043805   0.000000  -0.000000
   87  H  3  X    0.000000  -0.142319   0.251833
   88  H  3  Y   -0.000000   0.251833   0.142319
   89  H  3  Z   -0.820004  -0.000000   0.000000
   90  H  3  X    0.000000   0.018415  -0.032582
   91  H  3  Y   -0.000000  -0.032582  -0.018415
   92  H  3  Z    0.037472   0.000000   0.000000
   93  H  3 XX    0.086607   0.000000   0.000000
   94  H  3 YY    0.086607   0.000000   0.000000
   95  H  3 ZZ   -0.173214  -0.000000  -0.000000
   96  H  3 XY   -0.000000  -0.000000   0.000000
   97  H  3 XZ    0.000000  -0.115653   0.204652
   98  H  3 YZ    0.000000   0.204652   0.115653
   99  H  3 XX    0.001332  -0.000000  -0.000000
  100  H  3 YY    0.001332  -0.000000  -0.000000
  101  H  3 ZZ   -0.002665   0.000000   0.000000
  102  H  3 XY   -0.000000  -0.000000   0.000000
  103  H  3 XZ    0.000000   0.001977  -0.003498
  104  H  3 YZ   -0.000000  -0.003498  -0.001977
 ...... END OF DENSITY MATRIX CALCULATION ...... 
 CPU     0: STEP CPU TIME=     0.19 TOTAL CPU TIME=         17.4 (      0.3 MIN)
 TOTAL WALL CLOCK TIME=         19.2 SECONDS, CPU UTILIZATION IS    90.49%

     --------------------------------------------------------
     GUGA  CI PROPERTIES...FOR THE WAVEFUNCTION OF STATE    1
               USING THE EXPECTATION VALUE DENSITY
     --------------------------------------------------------

          -----------------
          ENERGY COMPONENTS
          -----------------

         WAVEFUNCTION NORMALIZATION =       1.0000000000

                ONE ELECTRON ENERGY =      -5.9959946030
                TWO ELECTRON ENERGY =       1.9967074527
           NUCLEAR REPULSION ENERGY =       1.7953088221
                                      ------------------
                       TOTAL ENERGY =      -2.2039783283

 ELECTRON-ELECTRON POTENTIAL ENERGY =       1.9967074527
  NUCLEUS-ELECTRON POTENTIAL ENERGY =      -7.7376850755
   NUCLEUS-NUCLEUS POTENTIAL ENERGY =       1.7953088221
                                      ------------------
             TOTAL POTENTIAL ENERGY =      -3.9456688008
               TOTAL KINETIC ENERGY =       1.7416904725
                 VIRIAL RATIO (V/T) =       2.2654248060

          ---------------------------------------
          MULLIKEN AND LOWDIN POPULATION ANALYSES
          ---------------------------------------

               ----- POPULATIONS IN EACH AO -----
                             MULLIKEN      LOWDIN
              1  BE 1  S      1.49401     0.14692
              2  BE 1  X     -0.00148     0.00078
              3  BE 1  Y     -0.00148     0.00078
              4  BE 1  Z      1.06092     0.19987
              5  BE 1  S      0.00177     0.06724
              6  BE 1  S     -0.21524     0.08734
              7  BE 1  S     -0.02047     0.02836
              8  BE 1  X      0.00056     0.00052
              9  BE 1  Y      0.00056     0.00052
             10  BE 1  Z      0.01330     0.05492
             11  BE 1  X      0.00509     0.00130
             12  BE 1  Y      0.00509     0.00130
             13  BE 1  Z      0.28134     0.21649
             14  BE 1  X      0.00187     0.00045
             15  BE 1  Y      0.00187     0.00045
             16  BE 1  Z      0.22254     0.13245
             17  BE 1 XX      0.03241     0.04716
             18  BE 1 YY      0.00000     0.04716
             19  BE 1 ZZ      0.00000     0.16605
             20  BE 1 XY      0.00000     0.00000
             21  BE 1 XZ      0.00000    -0.00000
             22  BE 1 YZ      0.00000    -0.00000
             23  BE 1 XX      0.02816     0.03224
             24  BE 1 YY      0.00000     0.03224
             25  BE 1 ZZ      0.00000     0.15855
             26  BE 1 XY      0.00000     0.00000
             27  BE 1 XZ      0.00000    -0.00000
             28  BE 1 YZ      0.00000     0.00000
             29  BE 1 XX      0.01857     0.00557
             30  BE 1 YY      0.00000     0.00557
             31  BE 1 ZZ      0.00000     0.04357
             32  BE 1 XY      0.00000     0.00000
             33  BE 1 XZ      0.00000    -0.00000
             34  BE 1 YZ      0.00000     0.00000
             35  BE 1 XXX     0.00000     0.00057
             36  BE 1 YYY     0.00000     0.00057
             37  BE 1 ZZZ     0.00021     0.22990
             38  BE 1 XXY     0.01502     0.00026
             39  BE 1 XXZ     0.00021     0.03286
             40  BE 1 YYX     0.00000     0.00026
             41  BE 1 YYZ     0.00000     0.03286
             42  BE 1 ZZX     0.00000     0.00063
             43  BE 1 ZZY     0.00000     0.00063
             44  BE 1 XYZ     0.00000     0.00000
             45  BE 1 XXX     0.00000     0.00011
             46  BE 1 YYY     0.00000     0.00011
             47  BE 1 ZZZ     0.00031     0.09122
             48  BE 1 XXY     0.01125     0.00005
             49  BE 1 XXZ     0.00031     0.01467
             50  BE 1 YYX     0.00000     0.00005
             51  BE 1 YYZ     0.00000     0.01467
             52  BE 1 ZZX     0.00000     0.00051
             53  BE 1 ZZY     0.00000     0.00051
             54  BE 1 XYZ     0.00000     0.00000
             55  H  2  S      1.40178     0.32287
             56  H  2  S     -0.03687     0.03640
             57  H  2  S     -0.52380     0.11598
             58  H  2  S     -0.32364     0.21374
             59  H  2  X      0.00022     0.00034
             60  H  2  Y      0.00022     0.00034
             61  H  2  Z      0.00798     0.02894
             62  H  2  X      0.00000     0.00030
             63  H  2  Y      0.00000     0.00030
             64  H  2  Z     -0.00640     0.01416
             65  H  2  X      0.00003     0.00003
             66  H  2  Y      0.00003     0.00003
             67  H  2  Z      0.00197     0.00250
             68  H  2 XX      0.00016     0.03116
             69  H  2 YY      0.00000     0.03116
             70  H  2 ZZ      0.00000     0.04917
             71  H  2 XY     -0.00012     0.00000
             72  H  2 XZ     -0.00012     0.00012
             73  H  2 YZ      0.00000     0.00012
             74  H  2 XX      0.00022     0.06014
             75  H  2 YY      0.00000     0.06014
             76  H  2 ZZ      0.00000     0.08289
             77  H  2 XY      0.00000     0.00000
             78  H  2 XZ      0.00000     0.00001
             79  H  2 YZ      0.00000     0.00001
             80  H  3  S      1.40178     0.32287
             81  H  3  S     -0.03687     0.03640
             82  H  3  S     -0.52380     0.11598
             83  H  3  S     -0.32364     0.21374
             84  H  3  X      0.00022     0.00034
             85  H  3  Y      0.00022     0.00034
             86  H  3  Z      0.00798     0.02894
             87  H  3  X      0.00000     0.00030
             88  H  3  Y      0.00000     0.00030
             89  H  3  Z     -0.00640     0.01416
             90  H  3  X      0.00003     0.00003
             91  H  3  Y      0.00003     0.00003
             92  H  3  Z      0.00197     0.00250
             93  H  3 XX      0.00016     0.03116
             94  H  3 YY      0.00000     0.03116
             95  H  3 ZZ      0.00000     0.04917
             96  H  3 XY     -0.00012     0.00000
             97  H  3 XZ     -0.00012     0.00012
             98  H  3 YZ      0.00000     0.00012
             99  H  3 XX      0.00022     0.06014
            100  H  3 YY      0.00000     0.06014
            101  H  3 ZZ      0.00000     0.08289
            102  H  3 XY      0.00000     0.00000
            103  H  3 XZ      0.00000     0.00001
            104  H  3 YZ      0.00000     0.00001

          ----- MULLIKEN ATOMIC OVERLAP POPULATIONS -----
          (OFF-DIAGONAL ELEMENTS NEED TO BE MULTIPLIED BY 2)

             1           2           3

    1    2.6090707
    2    0.1738057   0.4152821
    3    0.1738057  -0.0674288   0.4152821

          TOTAL MULLIKEN AND LOWDIN ATOMIC POPULATIONS
       ATOM         MULL.POP.    CHARGE          LOW.POP.     CHARGE
    1 BE            2.956682   -0.956682         1.898269    0.101731
    2 H             0.521659    0.478341         1.050866   -0.050866
    3 H             0.521659    0.478341         1.050866   -0.050866

          MULLIKEN SPHERICAL HARMONIC POPULATIONS
       ATOM           S       P       D      F      G      H      I    TOTAL
    1 BE            1.26    1.59    0.08   0.03   0.00   0.00   0.00    2.96
    2 H             0.52    0.00    0.00   0.00   0.00   0.00   0.00    0.52
    3 H             0.52    0.00    0.00   0.00   0.00   0.00   0.00    0.52

          ---------------------
          ELECTROSTATIC MOMENTS
          ---------------------

 POINT   1           X           Y           Z (BOHR)    CHARGE
                 0.000000    0.000000    0.000000        0.00 (A.U.)
         DX          DY          DZ         /D/  (DEBYE)
     0.000000    0.000000   -0.000000    0.000000
 ...... END OF PROPERTY EVALUATION ......
 CPU     0: STEP CPU TIME=     0.34 TOTAL CPU TIME=         17.8 (      0.3 MIN)
 TOTAL WALL CLOCK TIME=         19.6 SECONDS, CPU UTILIZATION IS    90.52%
                580000  WORDS OF DYNAMIC MEMORY USED
 EXECUTION OF GAMESS TERMINATED NORMALLY Tue Jul 27 11:12:49 2021
 DDI: 2200704 bytes (2.1 MB / 0 MWords) used by master data server.

 ----------------------------------------
 CPU timing information for all processes
 ========================================
 0: 6.115 + 13.661 = 19.777
 1: 10.927 + 10.282 = 21.209
 2: 10.908 + 10.308 = 21.216
 3: 11.33 + 10.186 = 21.220
 4: 22.873 + 0.772 = 23.645
 5: 23.46 + 0.604 = 23.650
 6: 22.916 + 0.720 = 23.637
 7: 22.856 + 0.784 = 23.640
 ----------------------------------------
unset echo
----- accounting info -----
Files used on the master node nid02525 were:
-rw-rw---- 1 haihan haihan    180181 Jul 27 11:12 /global/cscratch1/sd/haihan/gamess_44828631/cisd_4.F05
-rw-rw---- 1 haihan haihan      1376 Jul 27 11:12 /global/cscratch1/sd/haihan/gamess_44828631/cisd_4.F09
-rw-rw---- 1 haihan haihan 262144000 Jul 27 11:12 /global/cscratch1/sd/haihan/gamess_44828631/cisd_4.F10
-rw-rw---- 1 haihan haihan    289664 Jul 27 11:12 /global/cscratch1/sd/haihan/gamess_44828631/cisd_4.F11
-rw-rw---- 1 haihan haihan      4680 Jul 27 11:12 /global/cscratch1/sd/haihan/gamess_44828631/cisd_4.F12
-rw-rw---- 1 haihan haihan   4000008 Jul 27 11:12 /global/cscratch1/sd/haihan/gamess_44828631/cisd_4.F14
-rw-rw---- 1 haihan haihan    164712 Jul 27 11:12 /global/cscratch1/sd/haihan/gamess_44828631/cisd_4.F15
-rw-rw---- 1 haihan haihan    200216 Jul 27 11:12 /global/cscratch1/sd/haihan/gamess_44828631/cisd_4.F16
-rw-rw---- 1 haihan haihan     34513 Jul 27 11:12 /global/cscratch1/sd/haihan/gamess_44828631/cisd_4.dat
ls: No match.
ls: No match.
ls: No match.
Tue Jul 27 11:12:52 PDT 2021
3.367u 1.755s 0:32.30 15.8%	0+0k 1666+10184io 5pf+0w
