/global/u2/h/haihan/Research/C2H2/QMCCI/optJ123
  Input file(s): qmc.dump.qmc.in-wfj.xml 

=====================================================
                    QMCPACK 3.9.9

       (c) Copyright 2003-  QMCPACK developers

                    Please cite:
 J. Kim et al. J. Phys. Cond. Mat. 30 195901 (2018)
      https://doi.org/10.1088/1361-648X/aab9c3

  Git branch: develop
  Last git commit: a854014790c5309de44bee11aacb72110d1159f0
  Last git commit date: Thu Aug 6 17:11:13 2020 -0400
  Last git commit subject: Merge pull request #2622 from Hyeondeok-Shin/deterministic_test
=====================================================
  Global options 

  Total number of MPI ranks = 4
  Number of MPI groups      = 1
  MPI group ID              = 0
  Number of ranks in group  = 4
  MPI ranks per node        = 4
  OMP 1st level threads     = 1
  OMP nested threading disabled or only 1 thread on the 2nd level

  Precision used in this calculation, see definitions in the manual:
  Base precision      = double
  Full precision      = double

  Structure-of-arrays (SoA) optimization enabled

  Input XML = qmc.dump.qmc.in-wfj.xml

  Project = qmc.dump
  date    = 2021-02-09 12:42:01 PST
  host    = nid09847

 Random Number
 -------------
  Offset for the random number seeds based on time: 921

  Range of prime numbers to use as seeds over processors and threads = 7219-7247


 Particle Set 
 ------------
  Name: ion0
  All the species have the same mass 1
  Particle set size: 4

 Particle Set 
 ------------
  Name: e
  All the species have the same mass 1
  Particle set size: 10

 Wavefunction setup: 
 ------------------- 
  Name: psi0
  LCAO: SoaAtomicBasisSet<MultiQuintic,0>
Reading BasisSet from HDF5 file:qmc.dump.orbs.h5
<input node="atomicBasisSet" name="Gaussian" expandYlm="Gamess" angular="cartesian" elementType="C" normalized="no" type="Numerical" expM="0" />
  AO BasisSet for C
   Angular momentum expanded in cartesian functions x^lx y^ly z^lz according to Gamess
   Grid is created by the input paremters in h5
    Using log grid ri = 1e-06 rf = 100 npts = 1001
   R(n,l,m,s) 0 0 0 0
   R(n,l,m,s) 1 1 0 0
   R(n,l,m,s) 2 0 0 0
   R(n,l,m,s) 3 0 0 0
   R(n,l,m,s) 4 0 0 0
   R(n,l,m,s) 5 0 0 0
   R(n,l,m,s) 6 1 0 0
   R(n,l,m,s) 7 1 0 0
   R(n,l,m,s) 8 1 0 0
   R(n,l,m,s) 9 1 0 0
   R(n,l,m,s) 10 2 0 0
   R(n,l,m,s) 11 2 0 0
   R(n,l,m,s) 12 2 0 0
   R(n,l,m,s) 13 2 0 0
   R(n,l,m,s) 14 3 0 0
   R(n,l,m,s) 15 3 0 0
   R(n,l,m,s) 16 3 0 0
   R(n,l,m,s) 17 4 0 0
   R(n,l,m,s) 18 4 0 0
Expanding Ylm (angular function) according to Gamess using cartesian gaussians
Adding 1 cartesian gaussian orbitals for l= 0
Adding 3 cartesian gaussian orbitals for l= 1
Adding 1 cartesian gaussian orbitals for l= 0
Adding 1 cartesian gaussian orbitals for l= 0
Adding 1 cartesian gaussian orbitals for l= 0
Adding 1 cartesian gaussian orbitals for l= 0
Adding 3 cartesian gaussian orbitals for l= 1
Adding 3 cartesian gaussian orbitals for l= 1
Adding 3 cartesian gaussian orbitals for l= 1
Adding 3 cartesian gaussian orbitals for l= 1
Adding 6 cartesian gaussian orbitals for l= 2
Adding 6 cartesian gaussian orbitals for l= 2
Adding 6 cartesian gaussian orbitals for l= 2
Adding 6 cartesian gaussian orbitals for l= 2
Adding 10 cartesian gaussian orbitals for l= 3
Adding 10 cartesian gaussian orbitals for l= 3
Adding 10 cartesian gaussian orbitals for l= 3
Adding 15 cartesian gaussian orbitals for l= 4
Adding 15 cartesian gaussian orbitals for l= 4
  Setting cutoff radius 7.1924e+15

   Maximum Angular Momentum  = 4
   Number of Radial functors = 19
   Basis size                = 104

<input node="atomicBasisSet" name="Gaussian" expandYlm="Gamess" angular="cartesian" elementType="H" normalized="no" type="Numerical" expM="0" />
  AO BasisSet for H
   Angular momentum expanded in cartesian functions x^lx y^ly z^lz according to Gamess
   Grid is created by the input paremters in h5
    Using log grid ri = 1e-06 rf = 100 npts = 1001
   R(n,l,m,s) 0 0 0 0
   R(n,l,m,s) 1 0 0 0
   R(n,l,m,s) 2 0 0 0
   R(n,l,m,s) 3 0 0 0
   R(n,l,m,s) 4 0 0 0
   R(n,l,m,s) 5 1 0 0
   R(n,l,m,s) 6 1 0 0
   R(n,l,m,s) 7 1 0 0
   R(n,l,m,s) 8 1 0 0
   R(n,l,m,s) 9 2 0 0
   R(n,l,m,s) 10 2 0 0
   R(n,l,m,s) 11 2 0 0
   R(n,l,m,s) 12 3 0 0
   R(n,l,m,s) 13 3 0 0
Expanding Ylm (angular function) according to Gamess using cartesian gaussians
Adding 1 cartesian gaussian orbitals for l= 0
Adding 1 cartesian gaussian orbitals for l= 0
Adding 1 cartesian gaussian orbitals for l= 0
Adding 1 cartesian gaussian orbitals for l= 0
Adding 1 cartesian gaussian orbitals for l= 0
Adding 3 cartesian gaussian orbitals for l= 1
Adding 3 cartesian gaussian orbitals for l= 1
Adding 3 cartesian gaussian orbitals for l= 1
Adding 3 cartesian gaussian orbitals for l= 1
Adding 6 cartesian gaussian orbitals for l= 2
Adding 6 cartesian gaussian orbitals for l= 2
Adding 6 cartesian gaussian orbitals for l= 2
Adding 10 cartesian gaussian orbitals for l= 3
Adding 10 cartesian gaussian orbitals for l= 3
  Setting cutoff radius 9.95675e+11

   Maximum Angular Momentum  = 3
   Number of Radial functors = 14
   Basis size                = 55

  Created SPOSet builder named 'LCAOBSet' of type molecularorbital
Creating SPOSet in SlaterDetBuilder::put(xmlNodePtr cur).
spo_name = spo-up
  Building SPOSet 'spo-up' with 'LCAOBSet' basis set.
Creating SPOSet in SlaterDetBuilder::put(xmlNodePtr cur).
spo_name = spo-dn
  Building SPOSet 'spo-dn' with 'LCAOBSet' basis set.
Using Bryan's algorithm for MultiSlaterDeterminant expansion. 
Creating base determinant (up) for MSD expansion. 
Creating base determinant (down) for MSD expansion. 
Found Multideterminants in H5 File
Found determinant list. 
Reading CI expansion from HDF5:qmc.dump.orbs.h5
 Done reading CIs from H5!!
 Sorting unique CIs
 Done Sorting unique CIs
Found 68767 terms in the MSD expansion.
Norm of ci vector (sum of ci^2): 1
Found 4872 unique up determinants.
Found 4871 unique down determinants.
Number of terms in pairs array: 130
Number of terms in pairs array: 130
CI coefficients are not optimizable. 
  Added a fermionic WaveFunctionComponent SlaterDet

   Jastrow
   -------
    Name: J2   Type: Two-Body   Function: Bspline

    Radial function for species: u - u
     Number of parameters: 10
     Cusp: -0.25
     Cutoff radius: 10

     Name                        Value Type Recompute Use Index
     ---- ---------------------------- ---- --------- --- -----
     uu_0                 3.585230e-01    1         1  ON     0
     uu_1                 1.844129e-01    1         1  ON     1
     uu_2                 6.532920e-02    1         1  ON     2
     uu_3                -8.675194e-03    1         1  ON     3
     uu_4                -5.603961e-02    1         1  ON     4
     uu_5                -8.917433e-02    1         1  ON     5
     uu_6                -1.108901e-01    1         1  ON     6
     uu_7                -1.259352e-01    1         1  ON     7
     uu_8                -1.264819e-01    1         1  ON     8
     uu_9                -1.138253e-01    1         1  ON     9

    Radial function for species: u - d
     Number of parameters: 10
     Cusp: -0.5
     Cutoff radius: 10

     Name                        Value Type Recompute Use Index
     ---- ---------------------------- ---- --------- --- -----
     ud_0                 4.519365e-01    1         1  ON     0
     ud_1                 1.444038e-01    1         1  ON     1
     ud_2                -8.689503e-03    1         1  ON     2
     ud_3                -8.680245e-02    1         1  ON     3
     ud_4                -1.321527e-01    1         1  ON     4
     ud_5                -1.608987e-01    1         1  ON     5
     ud_6                -1.751087e-01    1         1  ON     6
     ud_7                -1.818142e-01    1         1  ON     7
     ud_8                -1.621855e-01    1         1  ON     8
     ud_9                -1.344532e-01    1         1  ON     9


   Jastrow
   -------
    Name: J1   Type: One-Body   Function: Bspline

    Radial function for element: C
     Number of parameters: 10
     Cusp: 0
     Cutoff radius: 10

     Name                        Value Type Recompute Use Index
     ---- ---------------------------- ---- --------- --- -----
     eC_0                -7.159826e-01    1         1  ON     0
     eC_1                -5.523736e-01    1         1  ON     1
     eC_2                -3.011796e-01    1         1  ON     2
     eC_3                -1.146892e-01    1         1  ON     3
     eC_4                -5.260632e-04    1         1  ON     4
     eC_5                 7.615080e-02    1         1  ON     5
     eC_6                 1.498068e-01    1         1  ON     6
     eC_7                 2.062170e-01    1         1  ON     7
     eC_8                 3.008141e-01    1         1  ON     8
     eC_9                 3.371417e-01    1         1  ON     9

    Radial function for element: H
     Number of parameters: 10
     Cusp: 0
     Cutoff radius: 10

     Name                        Value Type Recompute Use Index
     ---- ---------------------------- ---- --------- --- -----
     eH_0                -3.433928e-01    1         1  ON     0
     eH_1                -3.063312e-01    1         1  ON     1
     eH_2                -2.578407e-01    1         1  ON     2
     eH_3                -1.862734e-01    1         1  ON     3
     eH_4                -1.084302e-01    1         1  ON     4
     eH_5                -2.776467e-02    1         1  ON     5
     eH_6                 4.955277e-02    1         1  ON     6
     eH_7                 1.100668e-01    1         1  ON     7
     eH_8                 1.354345e-01    1         1  ON     8
     eH_9                 1.196067e-01    1         1  ON     9


   Jastrow
   -------
    Name: J3   Type: eeI   Function: polynomial

     Ion: C   electron-electron: u - u
      Number of parameters for e-e: 3, for e-I: 3
      Cutoff radius: 5

Expected 26 parameters, but found 0 in PolynomialFunctor3D.
        Name                        Value Type Recompute Use Index
      ------ ---------------------------- ---- --------- --- -----
       uuC_0                 0.000000e+00    1         1  ON     0
       uuC_1                 0.000000e+00    1         1  ON     1
       uuC_2                 0.000000e+00    1         1  ON     2
       uuC_3                 0.000000e+00    1         1  ON     3
       uuC_4                 0.000000e+00    1         1  ON     4
       uuC_5                 0.000000e+00    1         1  ON     5
       uuC_6                 0.000000e+00    1         1  ON     6
       uuC_7                 0.000000e+00    1         1  ON     7
       uuC_8                 0.000000e+00    1         1  ON     8
       uuC_9                 0.000000e+00    1         1  ON     9
      uuC_10                 0.000000e+00    1         1  ON    10
      uuC_11                 0.000000e+00    1         1  ON    11
      uuC_12                 0.000000e+00    1         1  ON    12
      uuC_13                 0.000000e+00    1         1  ON    13
      uuC_14                 0.000000e+00    1         1  ON    14
      uuC_15                 0.000000e+00    1         1  ON    15
      uuC_16                 0.000000e+00    1         1  ON    16
      uuC_17                 0.000000e+00    1         1  ON    17
      uuC_18                 0.000000e+00    1         1  ON    18
      uuC_19                 0.000000e+00    1         1  ON    19
      uuC_20                 0.000000e+00    1         1  ON    20
      uuC_21                 0.000000e+00    1         1  ON    21
      uuC_22                 0.000000e+00    1         1  ON    22
      uuC_23                 0.000000e+00    1         1  ON    23
      uuC_24                 0.000000e+00    1         1  ON    24
      uuC_25                 0.000000e+00    1         1  ON    25

     Ion: C   electron-electron: u - d
      Number of parameters for e-e: 3, for e-I: 3
      Cutoff radius: 5

Expected 26 parameters, but found 0 in PolynomialFunctor3D.
        Name                        Value Type Recompute Use Index
      ------ ---------------------------- ---- --------- --- -----
       udC_0                 0.000000e+00    1         1  ON     0
       udC_1                 0.000000e+00    1         1  ON     1
       udC_2                 0.000000e+00    1         1  ON     2
       udC_3                 0.000000e+00    1         1  ON     3
       udC_4                 0.000000e+00    1         1  ON     4
       udC_5                 0.000000e+00    1         1  ON     5
       udC_6                 0.000000e+00    1         1  ON     6
       udC_7                 0.000000e+00    1         1  ON     7
       udC_8                 0.000000e+00    1         1  ON     8
       udC_9                 0.000000e+00    1         1  ON     9
      udC_10                 0.000000e+00    1         1  ON    10
      udC_11                 0.000000e+00    1         1  ON    11
      udC_12                 0.000000e+00    1         1  ON    12
      udC_13                 0.000000e+00    1         1  ON    13
      udC_14                 0.000000e+00    1         1  ON    14
      udC_15                 0.000000e+00    1         1  ON    15
      udC_16                 0.000000e+00    1         1  ON    16
      udC_17                 0.000000e+00    1         1  ON    17
      udC_18                 0.000000e+00    1         1  ON    18
      udC_19                 0.000000e+00    1         1  ON    19
      udC_20                 0.000000e+00    1         1  ON    20
      udC_21                 0.000000e+00    1         1  ON    21
      udC_22                 0.000000e+00    1         1  ON    22
      udC_23                 0.000000e+00    1         1  ON    23
      udC_24                 0.000000e+00    1         1  ON    24
      udC_25                 0.000000e+00    1         1  ON    25

     Ion: H   electron-electron: u - u
      Number of parameters for e-e: 3, for e-I: 3
      Cutoff radius: 5

Expected 26 parameters, but found 0 in PolynomialFunctor3D.
        Name                        Value Type Recompute Use Index
      ------ ---------------------------- ---- --------- --- -----
       uuH_0                 0.000000e+00    1         1  ON     0
       uuH_1                 0.000000e+00    1         1  ON     1
       uuH_2                 0.000000e+00    1         1  ON     2
       uuH_3                 0.000000e+00    1         1  ON     3
       uuH_4                 0.000000e+00    1         1  ON     4
       uuH_5                 0.000000e+00    1         1  ON     5
       uuH_6                 0.000000e+00    1         1  ON     6
       uuH_7                 0.000000e+00    1         1  ON     7
       uuH_8                 0.000000e+00    1         1  ON     8
       uuH_9                 0.000000e+00    1         1  ON     9
      uuH_10                 0.000000e+00    1         1  ON    10
      uuH_11                 0.000000e+00    1         1  ON    11
      uuH_12                 0.000000e+00    1         1  ON    12
      uuH_13                 0.000000e+00    1         1  ON    13
      uuH_14                 0.000000e+00    1         1  ON    14
      uuH_15                 0.000000e+00    1         1  ON    15
      uuH_16                 0.000000e+00    1         1  ON    16
      uuH_17                 0.000000e+00    1         1  ON    17
      uuH_18                 0.000000e+00    1         1  ON    18
      uuH_19                 0.000000e+00    1         1  ON    19
      uuH_20                 0.000000e+00    1         1  ON    20
      uuH_21                 0.000000e+00    1         1  ON    21
      uuH_22                 0.000000e+00    1         1  ON    22
      uuH_23                 0.000000e+00    1         1  ON    23
      uuH_24                 0.000000e+00    1         1  ON    24
      uuH_25                 0.000000e+00    1         1  ON    25

     Ion: H   electron-electron: u - d
      Number of parameters for e-e: 3, for e-I: 3
      Cutoff radius: 5

Expected 26 parameters, but found 0 in PolynomialFunctor3D.
        Name                        Value Type Recompute Use Index
      ------ ---------------------------- ---- --------- --- -----
       udH_0                 0.000000e+00    1         1  ON     0
       udH_1                 0.000000e+00    1         1  ON     1
       udH_2                 0.000000e+00    1         1  ON     2
       udH_3                 0.000000e+00    1         1  ON     3
       udH_4                 0.000000e+00    1         1  ON     4
       udH_5                 0.000000e+00    1         1  ON     5
       udH_6                 0.000000e+00    1         1  ON     6
       udH_7                 0.000000e+00    1         1  ON     7
       udH_8                 0.000000e+00    1         1  ON     8
       udH_9                 0.000000e+00    1         1  ON     9
      udH_10                 0.000000e+00    1         1  ON    10
      udH_11                 0.000000e+00    1         1  ON    11
      udH_12                 0.000000e+00    1         1  ON    12
      udH_13                 0.000000e+00    1         1  ON    13
      udH_14                 0.000000e+00    1         1  ON    14
      udH_15                 0.000000e+00    1         1  ON    15
      udH_16                 0.000000e+00    1         1  ON    16
      udH_17                 0.000000e+00    1         1  ON    17
      udH_18                 0.000000e+00    1         1  ON    18
      udH_19                 0.000000e+00    1         1  ON    19
      udH_20                 0.000000e+00    1         1  ON    20
      udH_21                 0.000000e+00    1         1  ON    21
      udH_22                 0.000000e+00    1         1  ON    22
      udH_23                 0.000000e+00    1         1  ON    23
      udH_24                 0.000000e+00    1         1  ON    24
      udH_25                 0.000000e+00    1         1  ON    25

  QMCHamiltonian::addOperator Kinetic to H, physical Hamiltonian 
  QMCHamiltonian::addOperator ElecElec to H, physical Hamiltonian 
QMCHamiltonian::addOperatorType added type coulomb named ElecElec
  QMCHamiltonian::addOperator IonIon to H, physical Hamiltonian 
QMCHamiltonian::addOperatorType added type coulomb named IonIon

  ECPotential builder for pseudopotential 

  Adding pseudopotential for C
   Linear grid  ri=0 rf=10 npts = 10001
    ECPComponentBuilder::buildSemiLocalAndLocal 
    Assuming Hartree unit
   Number of angular momentum channels 2
   Maximum angular momentum channel 1
   Creating a Linear Grid Rmax=1.405
  Using global grid with delta = 0.001
   Making L=1 a local potential with a radial cutoff of 9.999
    Non-local pseudopotential parameters
    Maximum angular mementum = 0
    Number of non-local channels = 1
       l(0)=0
    Cutoff radius = 1.405
    Spherical grids and weights: 
                        1                 0                 0       0.08333333333
                       -1   1.224646799e-16                 0       0.08333333333
             0.4472135955       0.894427191                 0       0.08333333333
            -0.4472135955      0.7236067977      0.5257311121       0.08333333333
             0.4472135955      0.2763932023      0.8506508084       0.08333333333
            -0.4472135955     -0.2763932023      0.8506508084       0.08333333333
             0.4472135955     -0.7236067977      0.5257311121       0.08333333333
            -0.4472135955      -0.894427191   1.095357397e-16       0.08333333333
             0.4472135955     -0.7236067977     -0.5257311121       0.08333333333
            -0.4472135955     -0.2763932023     -0.8506508084       0.08333333333
             0.4472135955      0.2763932023     -0.8506508084       0.08333333333
            -0.4472135955      0.7236067977     -0.5257311121       0.08333333333
    Maximum cutoff radius 1.405

  Adding pseudopotential for H
   Linear grid  ri=0 rf=10 npts = 10001
    ECPComponentBuilder::buildSemiLocalAndLocal 
    Assuming Hartree unit
   Number of angular momentum channels 2
   Maximum angular momentum channel 1
   Creating a Linear Grid Rmax=1e-10
  Using global grid with delta = 0.001
   Making L=1 a local potential with a radial cutoff of 9.999
    Non-local pseudopotential parameters
    Maximum angular mementum = 0
    Number of non-local channels = 1
       l(0)=0
    Cutoff radius = 0.001
    Spherical grids and weights: 
                        1                 0                 0       0.08333333333
                       -1   1.224646799e-16                 0       0.08333333333
             0.4472135955       0.894427191                 0       0.08333333333
            -0.4472135955      0.7236067977      0.5257311121       0.08333333333
             0.4472135955      0.2763932023      0.8506508084       0.08333333333
            -0.4472135955     -0.2763932023      0.8506508084       0.08333333333
             0.4472135955     -0.7236067977      0.5257311121       0.08333333333
            -0.4472135955      -0.894427191   1.095357397e-16       0.08333333333
             0.4472135955     -0.7236067977     -0.5257311121       0.08333333333
            -0.4472135955     -0.2763932023     -0.8506508084       0.08333333333
             0.4472135955      0.2763932023     -0.8506508084       0.08333333333
            -0.4472135955      0.7236067977     -0.5257311121       0.08333333333
    Maximum cutoff radius 0.001
  QMCHamiltonian::addOperator LocalECP to H, physical Hamiltonian 

  Using NonLocalECP potential 
    Maximum grid on a sphere for NonLocalECPotential: 12
  QMCHamiltonian::addOperator NonLocalECP to H, physical Hamiltonian 
QMCHamiltonian::addOperatorType added type pseudo named PseudoPot

  QMCHamiltonian::add2WalkerProperty added
    5 to P::PropertyList 
    0 to P::Collectables 
    starting Index of the observables in P::PropertyList = 9
ParticleSetPool::randomize 1 ParticleSet.
<init source="ion0" target="e">
</init>
  Initialization Execution time = 8.781 secs
=========================================================
 Summary of QMC systems 
=========================================================
ParticleSetPool has: 

  ParticleSet 'e' contains 10 particles :  u(5) d(5)

    u  1.8852555233e-01 -4.8943131005e-01  1.7451167616e+00
    u  2.2819669922e-02 -3.3689953521e-02  3.3373604317e-01
    u  1.0978450774e-01 -4.5353970293e-01 -1.7905103142e+00
    u -6.8213924727e-01  1.2314343306e-01 -7.2975326431e-01
    u -7.5807049147e-01  7.1295425172e-02  2.8883586185e+00
    d -6.8587482332e-01 -1.2929174493e-01  1.5345529111e+00
    d  2.0123314527e-01  4.9066201034e-01  5.3254708615e-01
    d  3.4278307162e-01 -7.1633746986e-01 -1.2592255056e+00
    d -5.6295759357e-01  3.3780679712e-01 -1.5996684435e+00
    d -2.7791424385e-01  3.2097536583e-01 -3.8275287089e+00

  Distance table for dissimilar particles (A-B):
    source: ion0  target: e
    Using structure-of-arrays (SoA) data layout
    Distance computations use open boundary conditions in 3D.

  Distance table for similar particles (A-A):
    source/target: e
    Using structure-of-arrays (SoA) data layout
    Distance computations use open boundary conditions in 3D.


  ParticleSet 'ion0' contains 4 particles :  C(2) H(2)

    C  0.0000000000e+00  0.0000000000e+00  1.1362922364e+00
    C  0.0000000000e+00  0.0000000000e+00 -1.1362922364e+00
    H  0.0000000000e+00  0.0000000000e+00  3.1452599340e+00
    H  0.0000000000e+00  0.0000000000e+00 -3.1452599340e+00

  Distance table for similar particles (A-A):
    source/target: ion0
    Using structure-of-arrays (SoA) data layout
    Distance computations use open boundary conditions in 3D.


  Hamiltonian h0
  Kinetic         Kinetic energy
  ElecElec        CoulombAB source=e

  IonIon          CoulombAA source/target ion0

  LocalECP        LocalECPotential: ion0
  NonLocalECP     NonLocalECPotential: ion0

Loop execution max-interations = 4

=========================================================
  Start QMCFixedSampleLinearOptimize
  File Root qmc.dump.s000 append = no 
=========================================================
  Skip QMCDriver::putQMCInfo 
  Resetting Properties of the walkers 1 x 14
  Adding 1 walkers to 0 existing sets
  Total number of walkers: 4.0000000000e+00
  Total weight: 4.0000000000e+00

=========================================================
  Start VMC
  File Root qmc.dump.s000 append = no 
=========================================================
Resetting walkers
  Using the current 1 walkers.
  Total number of walkers: 4.0000000000e+00
  Total weight: 4.0000000000e+00
  Resetting Properties of the walkers 1 x 14

<vmc function="put">
  qmc_counter=0  my_counter=0
  time step      = 5.0000000000e-01
  blocks         = 20
  steps          = 100
  substeps       = 5
  current        = 0
  target samples = 8.0000000000e+03
  walkers/mpi    = 1

  stepsbetweensamples = 1
  SpinMoves      = no
<parameter name="blocks" condition="int">20</parameter>
<parameter name="blocks_between_recompute" condition="int">0</parameter>
<parameter name="check_properties" condition="int">100</parameter>
<parameter name="checkproperties" condition="int">100</parameter>
<parameter name="current" condition="int">0</parameter>
<parameter name="dmcwalkersperthread" condition="real">2.0000000000e+03</parameter>
<parameter name="maxcpusecs" condition="real">3.6000000000e+05</parameter>
<parameter name="record_configs" condition="int">0</parameter>
<parameter name="record_walkers" condition="int">1</parameter>
<parameter name="recordconfigs" condition="int">0</parameter>
<parameter name="recordwalkers" condition="int">1</parameter>
<parameter name="rewind" condition="int">0</parameter>
<parameter name="samples" condition="real">8.0000000000e+03</parameter>
<parameter name="samplesperthread" condition="real">2.0000000000e+03</parameter>
<parameter name="spinmass" condition="double">1.0000000000e+00</parameter>
<parameter name="spinmoves" condition="string">no</parameter>
<parameter name="steps" condition="int">100</parameter>
<parameter name="stepsbetweensamples" condition="int">1</parameter>
<parameter name="store_configs" condition="int">0</parameter>
<parameter name="storeconfigs" condition="int">0</parameter>
<parameter name="sub_steps" condition="int">5</parameter>
<parameter name="substeps" condition="int">5</parameter>
<parameter name="tau" condition="au">5.0000000000e-01</parameter>
<parameter name="time_step" condition="au">5.0000000000e-01</parameter>
<parameter name="timestep" condition="au">5.0000000000e-01</parameter>
<parameter name="use_drift" condition="string">no</parameter>
<parameter name="usedrift" condition="string">no</parameter>
<parameter name="walkers" condition="int">1</parameter>
<parameter name="warmup_steps" condition="int">2</parameter>
<parameter name="warmupsteps" condition="int">2</parameter>
  DumpConfig==false Nothing (configurations, state) will be saved.
  Walker Samples are dumped every 1 steps.
</vmc>
  Set drift_modifier UNR parameter a = 1.0000000000e+00
 Using QMCCostFunction::QMCCostFunction
 Using Default Cost Function: Cost = <|E-E_ff|^2>
  Set drift_modifier UNR parameter a = 1.0000000000e+00
<optimization-report>
<vmc stage="main" blocks="20">
  Initial partition of walkers 0 1 

  Using Particle by Particle moves
  Walker moves without drift
  Total Sample Size   =8000
  Walker distribution on root = 0 1 
  Using Locality Approximation
===== Memory Usage after the buffer registration =====
Available memory on node 0, free + buffers : 92755 MB
Memory footprint by rank 0 on node 0       : 79 MB
==================================================
  Anonymous Buffer size per walker : 1756552 Bytes.
MEMORY increase 1 MB VMC::resetRun
====================================================
  SimpleFixedNodeBranch::finalize after a VMC block
    QMC counter        = 0
    time step          = 0.5
    reference energy   = -12.5279
    reference variance = 0.0537515
====================================================
  Execution time = 1.8455e+02
</vmc>
<opt stage="setup">
  <log>
   Reading configurations from h5FileRoot qmc.dump.s000
  QMCCostFunction is created with 1 threads.
  Using Nonlocal PP in Opt: no
   Number of samples loaded to each thread : 2000 
  VMC Eavg = -1.2445e+01
  VMC Evar = 1.8559e-01
  Total weights = 8.0000e+03
  Execution time = 1.1755e+02
  </log>
</opt>
<opt stage="main" walkers="8000">
  <log>

*****************************************
Building overlap and Hamiltonian matrices
*****************************************

Among totally 144 optimized parameters, largest LM parameter change : 3.7752e-02 at parameter 21

******************************************************************************
Init Cost =  -1.1182e+01    New Cost =  -1.1185e+01  Delta Cost =  -3.1329e-03
******************************************************************************

The new set of parameters is valid. Updating the trial wave function!

*****************************************************************************
Applying the update for shift_i =   1.0000e-02     and shift_s =   2.5000e-01
*****************************************************************************
  Execution time = 3.0406e+02
  </log>
  <optVariables href="qmc.dump.s000.opt.xml">
  uu_0                 3.493817e-01 1 1  ON 0
  uu_1                 1.858147e-01 1 1  ON 1
  uu_2                 7.500968e-02 1 1  ON 2
  uu_3                 3.009433e-03 1 1  ON 3
  uu_4                -4.475891e-02 1 1  ON 4
  uu_5                -7.988229e-02 1 1  ON 5
  uu_6                -1.004675e-01 1 1  ON 6
  uu_7                -1.164636e-01 1 1  ON 7
  uu_8                -1.203504e-01 1 1  ON 8
  uu_9                -1.267802e-01 1 1  ON 9
  ud_0                 4.429166e-01 1 1  ON 10
  ud_1                 1.297619e-01 1 1  ON 11
  ud_2                -2.180243e-02 1 1  ON 12
  ud_3                -9.268880e-02 1 1  ON 13
  ud_4                -1.348952e-01 1 1  ON 14
  ud_5                -1.632634e-01 1 1  ON 15
  ud_6                -1.790046e-01 1 1  ON 16
  ud_7                -1.843312e-01 1 1  ON 17
  ud_8                -1.691490e-01 1 1  ON 18
  ud_9                -1.461024e-01 1 1  ON 19
  eC_0                -7.349873e-01 1 1  ON 20
  eC_1                -5.901256e-01 1 1  ON 21
  eC_2                -2.991764e-01 1 1  ON 22
  eC_3                -1.172049e-01 1 1  ON 23
  eC_4                -1.031269e-02 1 1  ON 24
  eC_5                 7.661710e-02 1 1  ON 25
  eC_6                 1.327192e-01 1 1  ON 26
  eC_7                 1.833371e-01 1 1  ON 27
  eC_8                 3.090977e-01 1 1  ON 28
  eC_9                 3.550876e-01 1 1  ON 29
  eH_0                -3.562672e-01 1 1  ON 30
  eH_1                -3.086401e-01 1 1  ON 31
  eH_2                -2.576600e-01 1 1  ON 32
  eH_3                -1.996260e-01 1 1  ON 33
  eH_4                -1.200271e-01 1 1  ON 34
  eH_5                -4.673456e-02 1 1  ON 35
  eH_6                 3.618479e-02 1 1  ON 36
  eH_7                 9.093882e-02 1 1  ON 37
  eH_8                 1.366614e-01 1 1  ON 38
  eH_9                 1.333115e-01 1 1  ON 39
 uuC_0                -1.708764e-03 1 1  ON 40
 uuC_1                 1.440289e-03 1 1  ON 41
 uuC_2                 6.285512e-03 1 1  ON 42
 uuC_3                -6.136750e-04 1 1  ON 43
 uuC_4                -1.165150e-03 1 1  ON 44
 uuC_5                -3.224242e-05 1 1  ON 45
 uuC_6                 4.772659e-03 1 1  ON 46
 uuC_7                -6.878079e-03 1 1  ON 47
 uuC_8                 6.552930e-03 1 1  ON 48
 uuC_9                 7.821873e-04 1 1  ON 49
uuC_10                 8.952006e-04 1 1  ON 50
uuC_11                -1.505800e-03 1 1  ON 51
uuC_12                -3.268513e-03 1 1  ON 52
uuC_13                -1.676831e-03 1 1  ON 53
uuC_14                 4.925881e-04 1 1  ON 54
uuC_15                 4.484414e-04 1 1  ON 55
uuC_16                -5.644934e-03 1 1  ON 56
uuC_17                -3.136668e-03 1 1  ON 57
uuC_18                 3.430887e-03 1 1  ON 58
uuC_19                 2.077787e-03 1 1  ON 59
uuC_20                 4.776248e-03 1 1  ON 60
uuC_21                -2.192941e-03 1 1  ON 61
uuC_22                 7.975021e-06 1 1  ON 62
uuC_23                -2.306225e-03 1 1  ON 63
uuC_24                 1.610448e-03 1 1  ON 64
uuC_25                -3.359265e-04 1 1  ON 65
 udC_0                -3.181579e-03 1 1  ON 66
 udC_1                 8.679447e-04 1 1  ON 67
 udC_2                 9.223888e-03 1 1  ON 68
 udC_3                 1.842415e-03 1 1  ON 69
 udC_4                -5.772856e-04 1 1  ON 70
 udC_5                -2.173015e-04 1 1  ON 71
 udC_6                 7.379967e-03 1 1  ON 72
 udC_7                -4.757508e-03 1 1  ON 73
 udC_8                 5.347084e-03 1 1  ON 74
 udC_9                -2.506132e-03 1 1  ON 75
udC_10                 3.149844e-03 1 1  ON 76
udC_11                -2.591484e-03 1 1  ON 77
udC_12                -1.414801e-03 1 1  ON 78
udC_13                -1.014219e-03 1 1  ON 79
udC_14                -1.742152e-03 1 1  ON 80
udC_15                 6.963369e-04 1 1  ON 81
udC_16                 3.803776e-03 1 1  ON 82
udC_17                -5.323292e-03 1 1  ON 83
udC_18                 1.695638e-04 1 1  ON 84
udC_19                 1.871315e-03 1 1  ON 85
udC_20                -7.694239e-04 1 1  ON 86
udC_21                 1.961142e-03 1 1  ON 87
udC_22                -1.130335e-03 1 1  ON 88
udC_23                -2.465426e-04 1 1  ON 89
udC_24                -4.908978e-04 1 1  ON 90
udC_25                 3.888638e-04 1 1  ON 91
 uuH_0                -5.178168e-03 1 1  ON 92
 uuH_1                -3.200746e-03 1 1  ON 93
 uuH_2                 3.512198e-03 1 1  ON 94
 uuH_3                 3.390248e-03 1 1  ON 95
 uuH_4                -3.861921e-04 1 1  ON 96
 uuH_5                 4.480757e-04 1 1  ON 97
 uuH_6                -2.813026e-04 1 1  ON 98
 uuH_7                 3.619010e-03 1 1  ON 99
 uuH_8                -1.570971e-03 1 1  ON 100
 uuH_9                 3.104643e-03 1 1  ON 101
uuH_10                 2.778409e-03 1 1  ON 102
uuH_11                 4.071960e-04 1 1  ON 103
uuH_12                -1.186181e-03 1 1  ON 104
uuH_13                -1.231156e-03 1 1  ON 105
uuH_14                 2.585921e-03 1 1  ON 106
uuH_15                -4.112938e-04 1 1  ON 107
uuH_16                -1.469252e-03 1 1  ON 108
uuH_17                 2.204307e-03 1 1  ON 109
uuH_18                -6.227269e-04 1 1  ON 110
uuH_19                 2.913909e-03 1 1  ON 111
uuH_20                -8.945697e-03 1 1  ON 112
uuH_21                -1.083611e-03 1 1  ON 113
uuH_22                -1.149144e-04 1 1  ON 114
uuH_23                 1.091050e-02 1 1  ON 115
uuH_24                -2.311377e-03 1 1  ON 116
uuH_25                 4.674672e-04 1 1  ON 117
 udH_0                 9.001052e-04 1 1  ON 118
 udH_1                -2.567436e-03 1 1  ON 119
 udH_2                -3.480007e-03 1 1  ON 120
 udH_3                 2.788953e-04 1 1  ON 121
 udH_4                -1.112246e-03 1 1  ON 122
 udH_5                 2.314434e-04 1 1  ON 123
 udH_6                -5.972415e-03 1 1  ON 124
 udH_7                 5.324906e-03 1 1  ON 125
 udH_8                 1.160485e-03 1 1  ON 126
 udH_9                 2.331064e-03 1 1  ON 127
udH_10                -8.355517e-04 1 1  ON 128
udH_11                -3.317391e-03 1 1  ON 129
udH_12                -2.854057e-03 1 1  ON 130
udH_13                 2.822484e-03 1 1  ON 131
udH_14                 5.608437e-03 1 1  ON 132
udH_15                -5.708515e-04 1 1  ON 133
udH_16                 7.868678e-03 1 1  ON 134
udH_17                 6.509706e-03 1 1  ON 135
udH_18                 1.077145e-03 1 1  ON 136
udH_19                 2.751690e-03 1 1  ON 137
udH_20                -1.257312e-02 1 1  ON 138
udH_21                -9.785360e-04 1 1  ON 139
udH_22                -6.941235e-05 1 1  ON 140
udH_23                 1.152428e-02 1 1  ON 141
udH_24                -2.184337e-03 1 1  ON 142
udH_25                 3.809630e-04 1 1  ON 143
  </optVariables>
   Restore the number of walkers to 1, removing 0 walkers.
</opt>
</optimization-report>
  QMC Execution time = 304.1 secs

=========================================================
  Start QMCFixedSampleLinearOptimize
  File Root qmc.dump.s001 append = no 
=========================================================
  Skip QMCDriver::putQMCInfo 
  Resetting Properties of the walkers 1 x 14

=========================================================
  Start VMC
  File Root qmc.dump.s001 append = no 
=========================================================
Using existing walkers 
  Resetting Properties of the walkers 1 x 14

<vmc function="put">
  qmc_counter=1  my_counter=0
  time step      = 0.5
  blocks         = 20
  steps          = 100
  substeps       = 5
  current        = 0
  target samples = 8000
  walkers/mpi    = 1

  stepsbetweensamples = 1
  SpinMoves      = no
<parameter name="blocks" condition="int">20</parameter>
<parameter name="blocks_between_recompute" condition="int">0</parameter>
<parameter name="check_properties" condition="int">100</parameter>
<parameter name="checkproperties" condition="int">100</parameter>
<parameter name="current" condition="int">0</parameter>
<parameter name="dmcwalkersperthread" condition="real">2000</parameter>
<parameter name="maxcpusecs" condition="real">3.6e+05</parameter>
<parameter name="record_configs" condition="int">0</parameter>
<parameter name="record_walkers" condition="int">1</parameter>
<parameter name="recordconfigs" condition="int">0</parameter>
<parameter name="recordwalkers" condition="int">1</parameter>
<parameter name="rewind" condition="int">0</parameter>
<parameter name="samples" condition="real">8000</parameter>
<parameter name="samplesperthread" condition="real">2000</parameter>
<parameter name="spinmass" condition="double">1</parameter>
<parameter name="spinmoves" condition="string">no</parameter>
<parameter name="steps" condition="int">100</parameter>
<parameter name="stepsbetweensamples" condition="int">1</parameter>
<parameter name="store_configs" condition="int">0</parameter>
<parameter name="storeconfigs" condition="int">0</parameter>
<parameter name="sub_steps" condition="int">5</parameter>
<parameter name="substeps" condition="int">5</parameter>
<parameter name="tau" condition="au">0.5</parameter>
<parameter name="time_step" condition="au">0.5</parameter>
<parameter name="timestep" condition="au">0.5</parameter>
<parameter name="use_drift" condition="string">no</parameter>
<parameter name="usedrift" condition="string">no</parameter>
<parameter name="walkers" condition="int">1</parameter>
<parameter name="warmup_steps" condition="int">2</parameter>
<parameter name="warmupsteps" condition="int">2</parameter>
  DumpConfig==false Nothing (configurations, state) will be saved.
  Walker Samples are dumped every 1 steps.
</vmc>
    Restarting, cummulative properties:
      energy     = -12.53
      variance   = 0
      r2accepted = 1e-10
      r2proposed = 1e-10
  Set drift_modifier UNR parameter a = 1
 Using QMCCostFunction::QMCCostFunction
 Using Default Cost Function: Cost = <|E-E_ff|^2>
  Set drift_modifier UNR parameter a = 1.0000e+00
  EstimatorManagerBase::add replace LocalEnergy estimator.
<optimization-report>
<vmc stage="main" blocks="20">
  Cannot make clones again. Use existing 1 clones
  Initial partition of walkers 0 1 

  Using Particle by Particle moves
  Walker moves without drift
  Total Sample Size   =8000
  Walker distribution on root = 0 1 
  Using Locality Approximation
===== Memory Usage after the buffer registration =====
Available memory on node 0, free + buffers : 92623 MB
Memory footprint by rank 0 on node 0       : 97 MB
==================================================
  Anonymous Buffer size per walker : 1756552 Bytes.
MEMORY increase 1 MB VMC::resetRun
====================================================
  SimpleFixedNodeBranch::finalize after a VMC block
    QMC counter        = 1
    time step          = 0.5
    reference energy   = -12.2383
    reference variance = 0.0764498
====================================================
  Execution time = 1.8284e+02
</vmc>
<opt stage="setup">
  <log>
   Reading configurations from h5FileRoot qmc.dump.s001
  QMCCostFunction is created with 1 threads.
  Using Nonlocal PP in Opt: no
   Number of samples loaded to each thread : 2000 
  VMC Eavg = -1.2439e+01
  VMC Evar = 2.0077e-01
  Total weights = 8.0000e+03
  Execution time = 1.1615e+02
  </log>
</opt>
<opt stage="main" walkers="8000">
  <log>

*****************************************
Building overlap and Hamiltonian matrices
*****************************************

Among totally 144 optimized parameters, largest LM parameter change : 3.6933e-02 at parameter 39

******************************************************************************
Init Cost =  -1.1175e+01    New Cost =  -1.1176e+01  Delta Cost =  -1.2854e-03
******************************************************************************

The new set of parameters is valid. Updating the trial wave function!

*****************************************************************************
Applying the update for shift_i =   1.0000e-02     and shift_s =   6.2500e-02
*****************************************************************************
  Execution time = 3.0075e+02
  </log>
  <optVariables href="qmc.dump.s001.opt.xml">
  uu_0                 3.607404e-01 1 1  ON 0
  uu_1                 1.882969e-01 1 1  ON 1
  uu_2                 8.103591e-02 1 1  ON 2
  uu_3                 5.530518e-03 1 1  ON 3
  uu_4                -4.070625e-02 1 1  ON 4
  uu_5                -7.377382e-02 1 1  ON 5
  uu_6                -9.324338e-02 1 1  ON 6
  uu_7                -1.098716e-01 1 1  ON 7
  uu_8                -1.070693e-01 1 1  ON 8
  uu_9                -9.974963e-02 1 1  ON 9
  ud_0                 4.718890e-01 1 1  ON 10
  ud_1                 1.536961e-01 1 1  ON 11
  ud_2                -2.905763e-03 1 1  ON 12
  ud_3                -7.526266e-02 1 1  ON 13
  ud_4                -1.179274e-01 1 1  ON 14
  ud_5                -1.482635e-01 1 1  ON 15
  ud_6                -1.659530e-01 1 1  ON 16
  ud_7                -1.708917e-01 1 1  ON 17
  ud_8                -1.564148e-01 1 1  ON 18
  ud_9                -1.496434e-01 1 1  ON 19
  eC_0                -7.314162e-01 1 1  ON 20
  eC_1                -5.778770e-01 1 1  ON 21
  eC_2                -3.002931e-01 1 1  ON 22
  eC_3                -1.164437e-01 1 1  ON 23
  eC_4                -5.871241e-04 1 1  ON 24
  eC_5                 7.477292e-02 1 1  ON 25
  eC_6                 1.532380e-01 1 1  ON 26
  eC_7                 1.625333e-01 1 1  ON 27
  eC_8                 2.810280e-01 1 1  ON 28
  eC_9                 3.589616e-01 1 1  ON 29
  eH_0                -3.713634e-01 1 1  ON 30
  eH_1                -3.021048e-01 1 1  ON 31
  eH_2                -2.638709e-01 1 1  ON 32
  eH_3                -1.941165e-01 1 1  ON 33
  eH_4                -1.036459e-01 1 1  ON 34
  eH_5                -2.629690e-02 1 1  ON 35
  eH_6                 4.561105e-02 1 1  ON 36
  eH_7                 1.074689e-01 1 1  ON 37
  eH_8                 1.140455e-01 1 1  ON 38
  eH_9                 9.637850e-02 1 1  ON 39
 uuC_0                -8.016233e-04 1 1  ON 40
 uuC_1                 1.035092e-03 1 1  ON 41
 uuC_2                 4.110978e-03 1 1  ON 42
 uuC_3                -2.628991e-03 1 1  ON 43
 uuC_4                -3.108744e-03 1 1  ON 44
 uuC_5                 5.636749e-05 1 1  ON 45
 uuC_6                 1.469927e-04 1 1  ON 46
 uuC_7                 2.388874e-03 1 1  ON 47
 uuC_8                 7.630377e-03 1 1  ON 48
 uuC_9                 2.097074e-03 1 1  ON 49
uuC_10                -2.355722e-03 1 1  ON 50
uuC_11                -3.354386e-03 1 1  ON 51
uuC_12                -4.375435e-03 1 1  ON 52
uuC_13                -7.074346e-04 1 1  ON 53
uuC_14                 2.234833e-03 1 1  ON 54
uuC_15                 3.906050e-04 1 1  ON 55
uuC_16                -3.980236e-03 1 1  ON 56
uuC_17                 2.062506e-04 1 1  ON 57
uuC_18                 2.010460e-03 1 1  ON 58
uuC_19                 2.905201e-03 1 1  ON 59
uuC_20                 3.172075e-03 1 1  ON 60
uuC_21                -1.667276e-03 1 1  ON 61
uuC_22                -2.217302e-04 1 1  ON 62
uuC_23                -1.066382e-03 1 1  ON 63
uuC_24                 1.004060e-03 1 1  ON 64
uuC_25                -1.687028e-04 1 1  ON 65
 udC_0                -6.264750e-03 1 1  ON 66
 udC_1                 5.907615e-04 1 1  ON 67
 udC_2                 1.405523e-02 1 1  ON 68
 udC_3                 4.043029e-03 1 1  ON 69
 udC_4                -1.845527e-03 1 1  ON 70
 udC_5                -3.791980e-04 1 1  ON 71
 udC_6                 1.174078e-02 1 1  ON 72
 udC_7                -5.882240e-03 1 1  ON 73
 udC_8                 1.179115e-02 1 1  ON 74
 udC_9                -1.830344e-03 1 1  ON 75
udC_10                 4.448464e-03 1 1  ON 76
udC_11                -6.234638e-03 1 1  ON 77
udC_12                -6.323221e-03 1 1  ON 78
udC_13                -4.749518e-03 1 1  ON 79
udC_14                 1.769829e-03 1 1  ON 80
udC_15                 9.001886e-04 1 1  ON 81
udC_16                 4.515675e-03 1 1  ON 82
udC_17                -6.944412e-03 1 1  ON 83
udC_18                 2.636955e-03 1 1  ON 84
udC_19                 6.613877e-03 1 1  ON 85
udC_20                -5.946093e-04 1 1  ON 86
udC_21                -4.058765e-05 1 1  ON 87
udC_22                -1.649278e-03 1 1  ON 88
udC_23                 1.223587e-03 1 1  ON 89
udC_24                -4.111817e-04 1 1  ON 90
udC_25                 5.286440e-04 1 1  ON 91
 uuH_0                 2.462720e-03 1 1  ON 92
 uuH_1                -2.168449e-03 1 1  ON 93
 uuH_2                -4.622351e-03 1 1  ON 94
 uuH_3                 1.295102e-03 1 1  ON 95
 uuH_4                -1.797113e-03 1 1  ON 96
 uuH_5                -2.008339e-04 1 1  ON 97
 uuH_6                -2.309339e-03 1 1  ON 98
 uuH_7                 6.958159e-03 1 1  ON 99
 uuH_8                 1.016550e-05 1 1  ON 100
 uuH_9                 3.156606e-04 1 1  ON 101
uuH_10                -1.274948e-03 1 1  ON 102
uuH_11                -3.650365e-03 1 1  ON 103
uuH_12                -2.749209e-03 1 1  ON 104
uuH_13                -3.378691e-03 1 1  ON 105
uuH_14                 6.227442e-03 1 1  ON 106
uuH_15                -8.965371e-04 1 1  ON 107
uuH_16                 4.402418e-03 1 1  ON 108
uuH_17                 2.160607e-03 1 1  ON 109
uuH_18                -5.348204e-03 1 1  ON 110
uuH_19                 5.603104e-03 1 1  ON 111
uuH_20                 9.755201e-04 1 1  ON 112
uuH_21                -1.235408e-03 1 1  ON 113
uuH_22                -5.865974e-04 1 1  ON 114
uuH_23                -2.166631e-04 1 1  ON 115
uuH_24                 3.592728e-04 1 1  ON 116
uuH_25                 2.827690e-05 1 1  ON 117
 udH_0                -5.627383e-04 1 1  ON 118
 udH_1                -7.890621e-04 1 1  ON 119
 udH_2                 8.337020e-04 1 1  ON 120
 udH_3                -1.178233e-03 1 1  ON 121
 udH_4                -3.062180e-03 1 1  ON 122
 udH_5                 3.178165e-04 1 1  ON 123
 udH_6                 3.837096e-04 1 1  ON 124
 udH_7                 4.711093e-03 1 1  ON 125
 udH_8                 4.747630e-03 1 1  ON 126
 udH_9                -6.261996e-04 1 1  ON 127
udH_10                -3.175318e-03 1 1  ON 128
udH_11                -2.452430e-03 1 1  ON 129
udH_12                -4.014097e-03 1 1  ON 130
udH_13                 1.272312e-03 1 1  ON 131
udH_14                 3.525927e-03 1 1  ON 132
udH_15                 7.033895e-05 1 1  ON 133
udH_16                 7.532858e-03 1 1  ON 134
udH_17                 2.580604e-03 1 1  ON 135
udH_18                -2.678429e-03 1 1  ON 136
udH_19                 4.186799e-03 1 1  ON 137
udH_20                -4.798318e-03 1 1  ON 138
udH_21                 1.029269e-03 1 1  ON 139
udH_22                -1.201513e-03 1 1  ON 140
udH_23                 3.489371e-03 1 1  ON 141
udH_24                -1.188873e-03 1 1  ON 142
udH_25                 6.720873e-04 1 1  ON 143
  </optVariables>
   Restore the number of walkers to 1, removing 0 walkers.
</opt>
</optimization-report>
  QMC Execution time = 300.8 secs

=========================================================
  Start QMCFixedSampleLinearOptimize
  File Root qmc.dump.s002 append = no 
=========================================================
  Skip QMCDriver::putQMCInfo 
  Resetting Properties of the walkers 1 x 14

=========================================================
  Start VMC
  File Root qmc.dump.s002 append = no 
=========================================================
Using existing walkers 
  Resetting Properties of the walkers 1 x 14

<vmc function="put">
  qmc_counter=2  my_counter=0
  time step      = 0.5
  blocks         = 20
  steps          = 100
  substeps       = 5
  current        = 0
  target samples = 8000
  walkers/mpi    = 1

  stepsbetweensamples = 1
  SpinMoves      = no
<parameter name="blocks" condition="int">20</parameter>
<parameter name="blocks_between_recompute" condition="int">0</parameter>
<parameter name="check_properties" condition="int">100</parameter>
<parameter name="checkproperties" condition="int">100</parameter>
<parameter name="current" condition="int">0</parameter>
<parameter name="dmcwalkersperthread" condition="real">2000</parameter>
<parameter name="maxcpusecs" condition="real">3.6e+05</parameter>
<parameter name="record_configs" condition="int">0</parameter>
<parameter name="record_walkers" condition="int">1</parameter>
<parameter name="recordconfigs" condition="int">0</parameter>
<parameter name="recordwalkers" condition="int">1</parameter>
<parameter name="rewind" condition="int">0</parameter>
<parameter name="samples" condition="real">8000</parameter>
<parameter name="samplesperthread" condition="real">2000</parameter>
<parameter name="spinmass" condition="double">1</parameter>
<parameter name="spinmoves" condition="string">no</parameter>
<parameter name="steps" condition="int">100</parameter>
<parameter name="stepsbetweensamples" condition="int">1</parameter>
<parameter name="store_configs" condition="int">0</parameter>
<parameter name="storeconfigs" condition="int">0</parameter>
<parameter name="sub_steps" condition="int">5</parameter>
<parameter name="substeps" condition="int">5</parameter>
<parameter name="tau" condition="au">0.5</parameter>
<parameter name="time_step" condition="au">0.5</parameter>
<parameter name="timestep" condition="au">0.5</parameter>
<parameter name="use_drift" condition="string">no</parameter>
<parameter name="usedrift" condition="string">no</parameter>
<parameter name="walkers" condition="int">1</parameter>
<parameter name="warmup_steps" condition="int">2</parameter>
<parameter name="warmupsteps" condition="int">2</parameter>
  DumpConfig==false Nothing (configurations, state) will be saved.
  Walker Samples are dumped every 1 steps.
</vmc>
    Restarting, cummulative properties:
      energy     = -12.38
      variance   = 0
      r2accepted = 1e-10
      r2proposed = 1e-10
  Set drift_modifier UNR parameter a = 1
 Using QMCCostFunction::QMCCostFunction
 Using Default Cost Function: Cost = <|E-E_ff|^2>
  Set drift_modifier UNR parameter a = 1.0000e+00
  EstimatorManagerBase::add replace LocalEnergy estimator.
<optimization-report>
<vmc stage="main" blocks="20">
  Cannot make clones again. Use existing 1 clones
  Initial partition of walkers 0 1 

  Using Particle by Particle moves
  Walker moves without drift
  Total Sample Size   =8000
  Walker distribution on root = 0 1 
  Using Locality Approximation
===== Memory Usage after the buffer registration =====
Available memory on node 0, free + buffers : 92624 MB
Memory footprint by rank 0 on node 0       : 97 MB
==================================================
  Anonymous Buffer size per walker : 1756552 Bytes.
MEMORY increase 1 MB VMC::resetRun
====================================================
  SimpleFixedNodeBranch::finalize after a VMC block
    QMC counter        = 2
    time step          = 0.5
    reference energy   = -12.3902
    reference variance = 0.0194339
====================================================
  Execution time = 1.8245e+02
</vmc>
<opt stage="setup">
  <log>
   Reading configurations from h5FileRoot qmc.dump.s002
  QMCCostFunction is created with 1 threads.
  Using Nonlocal PP in Opt: no
   Number of samples loaded to each thread : 2000 
  VMC Eavg = -1.2441e+01
  VMC Evar = 2.6471e-01
  Total weights = 8.0000e+03
  Execution time = 1.1586e+02
  </log>
</opt>
<opt stage="main" walkers="8000">
  <log>

*****************************************
Building overlap and Hamiltonian matrices
*****************************************

Among totally 144 optimized parameters, largest LM parameter change : 1.7826e+03 at parameter 29

******************************************************************************
Init Cost =  -1.1170e+01    New Cost =  -1.0465e+05  Delta Cost =  -1.0464e+05
******************************************************************************

The new set of parameters is valid. Updating the trial wave function!

*****************************************************************************
Applying the update for shift_i =   1.0000e-02     and shift_s =   1.5625e-02
*****************************************************************************
  Execution time = 3.0007e+02
  </log>
  <optVariables href="qmc.dump.s002.opt.xml">
  uu_0                -3.323408e-01 1 1  ON 0
  uu_1                -6.314646e-01 1 1  ON 1
  uu_2                -7.437374e-01 1 1  ON 2
  uu_3                -8.600886e-01 1 1  ON 3
  uu_4                -8.955992e-01 1 1  ON 4
  uu_5                -9.500749e-01 1 1  ON 5
  uu_6                -9.837266e-01 1 1  ON 6
  uu_7                -1.009123e+00 1 1  ON 7
  uu_8                -1.064822e+00 1 1  ON 8
  uu_9                -1.516997e+00 1 1  ON 9
  ud_0                -2.495497e+00 1 1  ON 10
  ud_1                -2.815616e+00 1 1  ON 11
  ud_2                -2.940834e+00 1 1  ON 12
  ud_3                -3.069871e+00 1 1  ON 13
  ud_4                -3.096938e+00 1 1  ON 14
  ud_5                -3.148336e+00 1 1  ON 15
  ud_6                -3.122280e+00 1 1  ON 16
  ud_7                -3.260906e+00 1 1  ON 17
  ud_8                -2.899256e+00 1 1  ON 18
  ud_9                -4.389785e+00 1 1  ON 19
  eC_0                 1.768614e+03 1 1  ON 20
  eC_1                 1.767841e+03 1 1  ON 21
  eC_2                 1.763965e+03 1 1  ON 22
  eC_3                 1.757879e+03 1 1  ON 23
  eC_4                 1.748728e+03 1 1  ON 24
  eC_5                 1.737655e+03 1 1  ON 25
  eC_6                 1.721871e+03 1 1  ON 26
  eC_7                 1.709175e+03 1 1  ON 27
  eC_8                 1.670817e+03 1 1  ON 28
  eC_9                 1.782982e+03 1 1  ON 29
  eH_0                -1.339089e+02 1 1  ON 30
  eH_1                -1.323852e+02 1 1  ON 31
  eH_2                -1.284995e+02 1 1  ON 32
  eH_3                -1.219937e+02 1 1  ON 33
  eH_4                -1.127632e+02 1 1  ON 34
  eH_5                -1.010444e+02 1 1  ON 35
  eH_6                -8.659304e+01 1 1  ON 36
  eH_7                -6.992253e+01 1 1  ON 37
  eH_8                -4.940218e+01 1 1  ON 38
  eH_9                -2.882853e+01 1 1  ON 39
 uuC_0                 1.432346e-01 1 1  ON 40
 uuC_1                -2.810176e-01 1 1  ON 41
 uuC_2                -9.761208e-01 1 1  ON 42
 uuC_3                 4.017677e-02 1 1  ON 43
 uuC_4                 2.819653e-01 1 1  ON 44
 uuC_5                 1.002496e-02 1 1  ON 45
 uuC_6                -1.280577e+00 1 1  ON 46
 uuC_7                 2.132968e-01 1 1  ON 47
 uuC_8                -1.199740e+00 1 1  ON 48
 uuC_9                 9.007467e-01 1 1  ON 49
uuC_10                 7.917854e-02 1 1  ON 50
uuC_11                 9.006275e-01 1 1  ON 51
uuC_12                 3.551035e-01 1 1  ON 52
uuC_13                -2.619838e-01 1 1  ON 53
uuC_14                -1.062294e-01 1 1  ON 54
uuC_15                -3.715276e-02 1 1  ON 55
uuC_16                -1.976499e+00 1 1  ON 56
uuC_17                 5.764814e-01 1 1  ON 57
uuC_18                -7.969827e-01 1 1  ON 58
uuC_19                -8.092673e-02 1 1  ON 59
uuC_20                 7.216778e-01 1 1  ON 60
uuC_21                -3.758935e-02 1 1  ON 61
uuC_22                 3.685332e-02 1 1  ON 62
uuC_23                -3.012884e-01 1 1  ON 63
uuC_24                 9.300764e-02 1 1  ON 64
uuC_25                -2.483538e-02 1 1  ON 65
 udC_0                 6.758794e-02 1 1  ON 66
 udC_1                -1.453991e-01 1 1  ON 67
 udC_2                -4.283537e-01 1 1  ON 68
 udC_3                 1.281393e-02 1 1  ON 69
 udC_4                 1.556453e-01 1 1  ON 70
 udC_5                 8.043302e-03 1 1  ON 71
 udC_6                -7.042390e-01 1 1  ON 72
 udC_7                 2.761874e-01 1 1  ON 73
 udC_8                -4.576975e-01 1 1  ON 74
 udC_9                 4.463262e-01 1 1  ON 75
udC_10                 7.924137e-02 1 1  ON 76
udC_11                 2.077977e-01 1 1  ON 77
udC_12                 2.024955e-01 1 1  ON 78
udC_13                -3.735891e-02 1 1  ON 79
udC_14                -1.447026e-02 1 1  ON 80
udC_15                -2.935704e-02 1 1  ON 81
udC_16                -9.608236e-01 1 1  ON 82
udC_17                 3.818710e-01 1 1  ON 83
udC_18                -2.708931e-01 1 1  ON 84
udC_19                -1.136934e-01 1 1  ON 85
udC_20                 2.157787e-01 1 1  ON 86
udC_21                 1.524854e-02 1 1  ON 87
udC_22                 2.364848e-02 1 1  ON 88
udC_23                -4.525073e-02 1 1  ON 89
udC_24                -8.188703e-03 1 1  ON 90
udC_25                -1.403779e-03 1 1  ON 91
 uuH_0                -3.481371e-02 1 1  ON 92
 uuH_1                -8.457643e-01 1 1  ON 93
 uuH_2                -1.494350e-01 1 1  ON 94
 uuH_3                 7.811227e-01 1 1  ON 95
 uuH_4                 5.502585e-01 1 1  ON 96
 uuH_5                 1.177432e-01 1 1  ON 97
 uuH_6                -2.333763e+00 1 1  ON 98
 uuH_7                 4.121948e+00 1 1  ON 99
 uuH_8                -3.113989e-01 1 1  ON 100
 uuH_9                 7.854564e-01 1 1  ON 101
uuH_10                 1.279534e+00 1 1  ON 102
uuH_11                -3.866652e+00 1 1  ON 103
uuH_12                 1.024987e+00 1 1  ON 104
uuH_13                -1.424512e+00 1 1  ON 105
uuH_14                 8.049171e-02 1 1  ON 106
uuH_15                -1.726346e-01 1 1  ON 107
uuH_16                -5.061620e-01 1 1  ON 108
uuH_17                -2.921008e+00 1 1  ON 109
uuH_18                 4.934253e+00 1 1  ON 110
uuH_19                -1.589339e+00 1 1  ON 111
uuH_20                 9.808589e-01 1 1  ON 112
uuH_21                -1.045671e+00 1 1  ON 113
uuH_22                 4.170807e-01 1 1  ON 114
uuH_23                -4.738910e-01 1 1  ON 115
uuH_24                 3.905828e-01 1 1  ON 116
uuH_25                -1.451465e-01 1 1  ON 117
 udH_0                -6.916417e-02 1 1  ON 118
 udH_1                -2.422059e-01 1 1  ON 119
 udH_2                -4.970443e-01 1 1  ON 120
 udH_3                 2.097570e-01 1 1  ON 121
 udH_4                 2.514013e-01 1 1  ON 122
 udH_5                 5.315002e-03 1 1  ON 123
 udH_6                -9.460808e-01 1 1  ON 124
 udH_7                 9.709064e-01 1 1  ON 125
 udH_8                -1.118234e+00 1 1  ON 126
 udH_9                 8.255872e-01 1 1  ON 127
udH_10                 3.005036e-01 1 1  ON 128
udH_11                -3.746309e-01 1 1  ON 129
udH_12                 6.082640e-01 1 1  ON 130
udH_13                -1.188193e+00 1 1  ON 131
udH_14                -4.115346e-01 1 1  ON 132
udH_15                -2.916256e-02 1 1  ON 133
udH_16                -1.031719e+00 1 1  ON 134
udH_17                -2.038796e+00 1 1  ON 135
udH_18                 1.858781e+00 1 1  ON 136
udH_19                -6.816227e-01 1 1  ON 137
udH_20                 1.247657e+00 1 1  ON 138
udH_21                -5.403784e-01 1 1  ON 139
udH_22                 1.856987e-01 1 1  ON 140
udH_23                -6.817681e-01 1 1  ON 141
udH_24                 3.542741e-01 1 1  ON 142
udH_25                -9.864996e-02 1 1  ON 143
  </optVariables>
   Restore the number of walkers to 1, removing 0 walkers.
</opt>
</optimization-report>
  QMC Execution time = 300.1 secs

=========================================================
  Start QMCFixedSampleLinearOptimize
  File Root qmc.dump.s003 append = no 
=========================================================
  Skip QMCDriver::putQMCInfo 
  Resetting Properties of the walkers 1 x 14

=========================================================
  Start VMC
  File Root qmc.dump.s003 append = no 
=========================================================
Using existing walkers 
  Resetting Properties of the walkers 1 x 14

<vmc function="put">
  qmc_counter=3  my_counter=0
  time step      = 0.5
  blocks         = 20
  steps          = 100
  substeps       = 5
  current        = 0
  target samples = 8000
  walkers/mpi    = 1

  stepsbetweensamples = 1
  SpinMoves      = no
<parameter name="blocks" condition="int">20</parameter>
<parameter name="blocks_between_recompute" condition="int">0</parameter>
<parameter name="check_properties" condition="int">100</parameter>
<parameter name="checkproperties" condition="int">100</parameter>
<parameter name="current" condition="int">0</parameter>
<parameter name="dmcwalkersperthread" condition="real">2000</parameter>
<parameter name="maxcpusecs" condition="real">3.6e+05</parameter>
<parameter name="record_configs" condition="int">0</parameter>
<parameter name="record_walkers" condition="int">1</parameter>
<parameter name="recordconfigs" condition="int">0</parameter>
<parameter name="recordwalkers" condition="int">1</parameter>
<parameter name="rewind" condition="int">0</parameter>
<parameter name="samples" condition="real">8000</parameter>
<parameter name="samplesperthread" condition="real">2000</parameter>
<parameter name="spinmass" condition="double">1</parameter>
<parameter name="spinmoves" condition="string">no</parameter>
<parameter name="steps" condition="int">100</parameter>
<parameter name="stepsbetweensamples" condition="int">1</parameter>
<parameter name="store_configs" condition="int">0</parameter>
<parameter name="storeconfigs" condition="int">0</parameter>
<parameter name="sub_steps" condition="int">5</parameter>
<parameter name="substeps" condition="int">5</parameter>
<parameter name="tau" condition="au">0.5</parameter>
<parameter name="time_step" condition="au">0.5</parameter>
<parameter name="timestep" condition="au">0.5</parameter>
<parameter name="use_drift" condition="string">no</parameter>
<parameter name="usedrift" condition="string">no</parameter>
<parameter name="walkers" condition="int">1</parameter>
<parameter name="warmup_steps" condition="int">2</parameter>
<parameter name="warmupsteps" condition="int">2</parameter>
  DumpConfig==false Nothing (configurations, state) will be saved.
  Walker Samples are dumped every 1 steps.
</vmc>
    Restarting, cummulative properties:
      energy     = -12.39
      variance   = 0
      r2accepted = 1e-10
      r2proposed = 1e-10
  Set drift_modifier UNR parameter a = 1
 Using QMCCostFunction::QMCCostFunction
 Using Default Cost Function: Cost = <|E-E_ff|^2>
  Set drift_modifier UNR parameter a = 1.0000e+00
  EstimatorManagerBase::add replace LocalEnergy estimator.
<optimization-report>
<vmc stage="main" blocks="20">
  Cannot make clones again. Use existing 1 clones
  Initial partition of walkers 0 1 

  Using Particle by Particle moves
  Walker moves without drift
  Total Sample Size   =8000
  Walker distribution on root = 0 1 
  Using Locality Approximation
===== Memory Usage after the buffer registration =====
Available memory on node 0, free + buffers : 92623 MB
Memory footprint by rank 0 on node 0       : 98 MB
==================================================
  Anonymous Buffer size per walker : 1756552 Bytes.
MEMORY increase 1 MB VMC::resetRun
====================================================
  SimpleFixedNodeBranch::finalize after a VMC block
    QMC counter        = 3
    time step          = 0.5
    reference energy   = 683.861
    reference variance = 330702
====================================================
  Execution time = 1.0841e+02
</vmc>
<opt stage="setup">
  <log>
   Reading configurations from h5FileRoot qmc.dump.s003
  QMCCostFunction is created with 1 threads.
  Using Nonlocal PP in Opt: no
   Number of samples loaded to each thread : 2000 
  VMC Eavg = -5.1584e+03
  VMC Evar = 5.0785e+09
  Total weights = 8.0000e+03
  Execution time = 4.2149e+01
  </log>
</opt>
<opt stage="main" walkers="8000">
  <log>

*****************************************
Building overlap and Hamiltonian matrices
*****************************************

Among totally 144 optimized parameters, largest LM parameter change : 4.8362e+03 at parameter 58

******************************************************************************
Init Cost =   5.0785e+08    New Cost =   4.5677e+06  Delta Cost =  -5.0328e+08
******************************************************************************

The new set of parameters is valid. Updating the trial wave function!

*****************************************************************************
Applying the update for shift_i =   1.0000e-02     and shift_s =   3.9062e-03
*****************************************************************************
  Execution time = 1.5224e+02
  </log>
  <optVariables href="qmc.dump.s003.opt.xml">
  uu_0                -9.935730e-03 1 1  ON 0
  uu_1                -2.781019e-01 1 1  ON 1
  uu_2                -4.174607e-01 1 1  ON 2
  uu_3                -5.127274e-01 1 1  ON 3
  uu_4                -5.716647e-01 1 1  ON 4
  uu_5                -6.378271e-01 1 1  ON 5
  uu_6                -5.786072e-01 1 1  ON 6
  uu_7                -7.772526e-01 1 1  ON 7
  uu_8                -2.593008e-01 1 1  ON 8
  uu_9                -9.304373e-01 1 1  ON 9
  ud_0                -2.822934e+00 1 1  ON 10
  ud_1                -3.109658e+00 1 1  ON 11
  ud_2                -3.252579e+00 1 1  ON 12
  ud_3                -3.369137e+00 1 1  ON 13
  ud_4                -3.381657e+00 1 1  ON 14
  ud_5                -3.444336e+00 1 1  ON 15
  ud_6                -3.411837e+00 1 1  ON 16
  ud_7                -3.650253e+00 1 1  ON 17
  ud_8                -3.134156e+00 1 1  ON 18
  ud_9                -4.774287e+00 1 1  ON 19
  eC_0                 1.786053e+03 1 1  ON 20
  eC_1                 1.767664e+03 1 1  ON 21
  eC_2                 1.766735e+03 1 1  ON 22
  eC_3                 1.755094e+03 1 1  ON 23
  eC_4                 1.749669e+03 1 1  ON 24
  eC_5                 1.743359e+03 1 1  ON 25
  eC_6                 1.725062e+03 1 1  ON 26
  eC_7                 1.707947e+03 1 1  ON 27
  eC_8                 1.668123e+03 1 1  ON 28
  eC_9                 1.785239e+03 1 1  ON 29
  eH_0                -1.382830e+02 1 1  ON 30
  eH_1                -1.365866e+02 1 1  ON 31
  eH_2                -1.301521e+02 1 1  ON 32
  eH_3                -1.264835e+02 1 1  ON 33
  eH_4                -1.117541e+02 1 1  ON 34
  eH_5                -9.863644e+01 1 1  ON 35
  eH_6                -8.517327e+01 1 1  ON 36
  eH_7                -7.161329e+01 1 1  ON 37
  eH_8                -4.873206e+01 1 1  ON 38
  eH_9                -2.794529e+01 1 1  ON 39
 uuC_0                -4.963567e+00 1 1  ON 40
 uuC_1                -1.157751e+03 1 1  ON 41
 uuC_2                -6.381107e+02 1 1  ON 42
 uuC_3                 1.033073e+03 1 1  ON 43
 uuC_4                 7.608840e+02 1 1  ON 44
 uuC_5                 1.187442e+02 1 1  ON 45
 uuC_6                -2.952961e+03 1 1  ON 46
 uuC_7                 3.161001e+03 1 1  ON 47
 uuC_8                -1.249271e+03 1 1  ON 48
 uuC_9                 1.421270e+03 1 1  ON 49
uuC_10                 1.532235e+03 1 1  ON 50
uuC_11                -2.986638e+03 1 1  ON 51
uuC_12                 1.148809e+03 1 1  ON 52
uuC_13                -1.984741e+03 1 1  ON 53
uuC_14                -2.902784e+02 1 1  ON 54
uuC_15                -1.173224e+02 1 1  ON 55
uuC_16                -8.813699e+02 1 1  ON 56
uuC_17                -3.780774e+03 1 1  ON 57
uuC_18                 4.835354e+03 1 1  ON 58
uuC_19                -1.459718e+03 1 1  ON 59
uuC_20                 1.133641e+03 1 1  ON 60
uuC_21                -9.337642e+02 1 1  ON 61
uuC_22                 3.366818e+02 1 1  ON 62
uuC_23                -4.102205e+02 1 1  ON 63
uuC_24                 3.134701e+02 1 1  ON 64
uuC_25                -1.051119e+02 1 1  ON 65
 udC_0                 7.017090e+01 1 1  ON 66
 udC_1                 9.324339e+01 1 1  ON 67
 udC_2                -1.308096e+02 1 1  ON 68
 udC_3                -7.659654e+01 1 1  ON 69
 udC_4                 2.490947e+00 1 1  ON 70
 udC_5                -1.672461e+01 1 1  ON 71
 udC_6                 6.358006e+01 1 1  ON 72
 udC_7                -8.341870e+01 1 1  ON 73
 udC_8                -1.215583e+02 1 1  ON 74
 udC_9                -3.135224e+01 1 1  ON 75
udC_10                -8.493913e+01 1 1  ON 76
udC_11                 1.268539e+02 1 1  ON 77
udC_12                 3.443112e+01 1 1  ON 78
udC_13                 2.946307e+01 1 1  ON 79
udC_14                -1.405170e+01 1 1  ON 80
udC_15                -5.495581e+00 1 1  ON 81
udC_16                 4.515822e+01 1 1  ON 82
udC_17                 2.973603e+00 1 1  ON 83
udC_18                 4.129563e+01 1 1  ON 84
udC_19                -4.594170e+01 1 1  ON 85
udC_20                -9.647045e+00 1 1  ON 86
udC_21                -4.240280e+01 1 1  ON 87
udC_22                 1.890740e+01 1 1  ON 88
udC_23                 1.645813e+00 1 1  ON 89
udC_24                 2.464046e+01 1 1  ON 90
udC_25                -9.071425e+00 1 1  ON 91
 uuH_0                 3.850104e-01 1 1  ON 92
 uuH_1                 5.003006e+00 1 1  ON 93
 uuH_2                -5.288637e+00 1 1  ON 94
 uuH_3                 5.814929e+00 1 1  ON 95
 uuH_4                 6.734751e+00 1 1  ON 96
 uuH_5                -1.119914e+00 1 1  ON 97
 uuH_6                 3.255587e+01 1 1  ON 98
 uuH_7                -6.410789e+01 1 1  ON 99
 uuH_8                -5.041527e+01 1 1  ON 100
 uuH_9                -1.442080e+01 1 1  ON 101
uuH_10                 1.956468e+00 1 1  ON 102
uuH_11                 6.400281e+01 1 1  ON 103
uuH_12                 1.981383e+01 1 1  ON 104
uuH_13                -1.446518e+01 1 1  ON 105
uuH_14                -3.404460e+01 1 1  ON 106
uuH_15                 2.042069e+00 1 1  ON 107
uuH_16                 5.788042e+01 1 1  ON 108
uuH_17                -4.387884e+01 1 1  ON 109
uuH_18                -6.819162e+01 1 1  ON 110
uuH_19                 5.188926e-01 1 1  ON 111
uuH_20                -1.188112e+01 1 1  ON 112
uuH_21                 3.679809e+01 1 1  ON 113
uuH_22                -7.363634e+00 1 1  ON 114
uuH_23                 6.493656e+00 1 1  ON 115
uuH_24                -1.640862e+01 1 1  ON 116
uuH_25                 4.546838e+00 1 1  ON 117
 udH_0                -2.166441e+00 1 1  ON 118
 udH_1                -1.429585e-01 1 1  ON 119
 udH_2                 3.487519e+00 1 1  ON 120
 udH_3                 8.178750e-01 1 1  ON 121
 udH_4                -4.189899e-01 1 1  ON 122
 udH_5                -1.865163e-02 1 1  ON 123
 udH_6                 1.857436e+00 1 1  ON 124
 udH_7                -2.384032e+00 1 1  ON 125
 udH_8                -2.517837e+00 1 1  ON 126
 udH_9                 1.130079e+00 1 1  ON 127
udH_10                 8.041241e-01 1 1  ON 128
udH_11                 5.627930e+00 1 1  ON 129
udH_12                 1.011395e+00 1 1  ON 130
udH_13                -3.620287e+00 1 1  ON 131
udH_14                -4.459062e+00 1 1  ON 132
udH_15                 7.954299e-01 1 1  ON 133
udH_16                -3.298665e+00 1 1  ON 134
udH_17                -4.432070e+00 1 1  ON 135
udH_18                -1.373694e+01 1 1  ON 136
udH_19                 3.864775e+00 1 1  ON 137
udH_20                 5.160170e+00 1 1  ON 138
udH_21                 6.395006e+00 1 1  ON 139
udH_22                -2.680950e+00 1 1  ON 140
udH_23                -3.198174e+00 1 1  ON 141
udH_24                -1.922132e+00 1 1  ON 142
udH_25                 1.187699e+00 1 1  ON 143
  </optVariables>
   Restore the number of walkers to 1, removing 0 walkers.
</opt>
</optimization-report>
  QMC Execution time = 152.3 secs
Loop execution max-interations = 10
BRANCH resetRun
 SimpleFixedNodeBranch::resetRun detected changes in <parameter>'s 
 BranchMode : 0000001100 0000001100
 iParam (old):                  2                 1                 3                 0                 0                 0                 1                 0
 iParam (new):                  5                 1                 3                 0                 0                 0                 1                 0
 vParam (old):                0.5               0.1                 1                 1                 1                 1                 1                 1                 1                 0                 0                 1                10                 1                 1                 1                 1
 vParam (new):                0.5               0.1                 1                 1                 1                 1                 1                 1                 1                 0                 0                 1                10                 1                 1                 1                 1

=========================================================
  Start QMCFixedSampleLinearOptimize
  File Root qmc.dump.s004 append = no 
=========================================================
  Skip QMCDriver::putQMCInfo 
  Resetting Properties of the walkers 1 x 14

=========================================================
  Start VMC
  File Root qmc.dump.s004 append = no 
=========================================================
Resetting walkers
  Using the current 1 walkers.
  Total number of walkers: 4
  Total weight: 4
  Resetting Properties of the walkers 1 x 14

<vmc function="put">
  qmc_counter=0  my_counter=0
  time step      = 0.5
  blocks         = 40
  steps          = 100
  substeps       = 5
  current        = 0
  target samples = 16000
  walkers/mpi    = 1

  stepsbetweensamples = 1
  SpinMoves      = no
<parameter name="blocks" condition="int">40</parameter>
<parameter name="blocks_between_recompute" condition="int">0</parameter>
<parameter name="check_properties" condition="int">100</parameter>
<parameter name="checkproperties" condition="int">100</parameter>
<parameter name="current" condition="int">0</parameter>
<parameter name="dmcwalkersperthread" condition="real">4000</parameter>
<parameter name="maxcpusecs" condition="real">360000</parameter>
<parameter name="record_configs" condition="int">0</parameter>
<parameter name="record_walkers" condition="int">1</parameter>
<parameter name="recordconfigs" condition="int">0</parameter>
<parameter name="recordwalkers" condition="int">1</parameter>
<parameter name="rewind" condition="int">0</parameter>
<parameter name="samples" condition="real">16000</parameter>
<parameter name="samplesperthread" condition="real">4000</parameter>
<parameter name="spinmass" condition="double">1</parameter>
<parameter name="spinmoves" condition="string">no</parameter>
<parameter name="steps" condition="int">100</parameter>
<parameter name="stepsbetweensamples" condition="int">1</parameter>
<parameter name="store_configs" condition="int">0</parameter>
<parameter name="storeconfigs" condition="int">0</parameter>
<parameter name="sub_steps" condition="int">5</parameter>
<parameter name="substeps" condition="int">5</parameter>
<parameter name="tau" condition="au">0.5</parameter>
<parameter name="time_step" condition="au">0.5</parameter>
<parameter name="timestep" condition="au">0.5</parameter>
<parameter name="use_drift" condition="string">no</parameter>
<parameter name="usedrift" condition="string">no</parameter>
<parameter name="walkers" condition="int">1</parameter>
<parameter name="warmup_steps" condition="int">5</parameter>
<parameter name="warmupsteps" condition="int">5</parameter>
  DumpConfig==false Nothing (configurations, state) will be saved.
  Walker Samples are dumped every 1 steps.
</vmc>
    Restarting, cummulative properties:
      energy     = 161.6762761
      variance   = 0
      r2accepted = 1e-10
      r2proposed = 1e-10
  Set drift_modifier UNR parameter a = 1
 Using QMCCostFunction::QMCCostFunction
 Using Default Cost Function: Cost = <|E-E_ff|^2>
  Set drift_modifier UNR parameter a = 1.0000000000e+00
  EstimatorManagerBase::add replace LocalEnergy estimator.
<optimization-report>
<vmc stage="main" blocks="40">
  Cannot make clones again. Use existing 1 clones
  Initial partition of walkers 0 1 

  Using Particle by Particle moves
  Walker moves without drift
  Total Sample Size   =16000
  Walker distribution on root = 0 1 
  Using Locality Approximation
===== Memory Usage after the buffer registration =====
Available memory on node 0, free + buffers : 92620 MB
Memory footprint by rank 0 on node 0       : 98 MB
==================================================
  Anonymous Buffer size per walker : 1756552 Bytes.
MEMORY increase 1 MB VMC::resetRun
====================================================
  SimpleFixedNodeBranch::finalize after a VMC block
    QMC counter        = 4
    time step          = 0.5
    reference energy   = 1131.99
    reference variance = 214376
====================================================
  Execution time = 2.1512e+02
</vmc>
<opt stage="setup">
  <log>
   Reading configurations from h5FileRoot qmc.dump.s004
  QMCCostFunction is created with 1 threads.
  Using Nonlocal PP in Opt: no
   Number of samples loaded to each thread : 4000 
  VMC Eavg = 1.1044e+03
  VMC Evar = 1.7643e+07
  Total weights = 1.6000e+04
  Execution time = 8.2568e+01
  </log>
</opt>
<opt stage="main" walkers="16000">
  <log>

*****************************************
Building overlap and Hamiltonian matrices
*****************************************

Among totally 144 optimized parameters, largest LM parameter change : 7.7951e+01 at parameter 39

******************************************************************************
Init Cost =   1.7653e+06    New Cost =   8.3287e+01  Delta Cost =  -1.7652e+06
******************************************************************************

The new set of parameters is not valid. Revert to the old set!

*****************************************************************************
Applying the update for shift_i =   1.0000e-02     and shift_s =   4.0000e+00
*****************************************************************************
  Execution time = 3.0098e+02
  </log>
  <optVariables href="qmc.dump.s004.opt.xml">
  uu_0                -9.935730e-03 1 1  ON 0
  uu_1                -2.781019e-01 1 1  ON 1
  uu_2                -4.174607e-01 1 1  ON 2
  uu_3                -5.127274e-01 1 1  ON 3
  uu_4                -5.716647e-01 1 1  ON 4
  uu_5                -6.378271e-01 1 1  ON 5
  uu_6                -5.786072e-01 1 1  ON 6
  uu_7                -7.772526e-01 1 1  ON 7
  uu_8                -2.593008e-01 1 1  ON 8
  uu_9                -9.304373e-01 1 1  ON 9
  ud_0                -2.822934e+00 1 1  ON 10
  ud_1                -3.109658e+00 1 1  ON 11
  ud_2                -3.252579e+00 1 1  ON 12
[...]

******************************************************************************
Init Cost =   1.7944e+04    New Cost =   1.5061e+04  Delta Cost =  -2.8830e+03
******************************************************************************

The new set of parameters is not valid. Revert to the old set!
Update shift_s_base to 1.4142e+00

*****************************************************************************
Applying the update for shift_i =   1.0000e-02     and shift_s =   1.0240e+03
*****************************************************************************
  Execution time = 3.0134e+02
  </log>
  <optVariables href="qmc.dump.s012.opt.xml">
  uu_0                -1.884973e-01 1 1  ON 0
  uu_1                -4.653764e-01 1 1  ON 1
  uu_2                -6.189618e-01 1 1  ON 2
  uu_3                -7.333903e-01 1 1  ON 3
  uu_4                -7.655888e-01 1 1  ON 4
  uu_5                -8.388437e-01 1 1  ON 5
  uu_6                -6.701798e-01 1 1  ON 6
  uu_7                -8.116455e-01 1 1  ON 7
  uu_8                 2.431650e-02 1 1  ON 8
  uu_9                -1.514333e-01 1 1  ON 9
  ud_0                -3.238554e+00 1 1  ON 10
  ud_1                -3.555152e+00 1 1  ON 11
  ud_2                -3.696893e+00 1 1  ON 12
  ud_3                -3.827027e+00 1 1  ON 13
  ud_4                -3.825229e+00 1 1  ON 14
  ud_5                -3.852133e+00 1 1  ON 15
  ud_6                -3.761280e+00 1 1  ON 16
  ud_7                -3.789493e+00 1 1  ON 17
  ud_8                -3.220095e+00 1 1  ON 18
  ud_9                -4.144589e+00 1 1  ON 19
  eC_0                 1.786053e+03 1 1  ON 20
  eC_1                 1.767664e+03 1 1  ON 21
  eC_2                 1.766735e+03 1 1  ON 22
  eC_3                 1.755094e+03 1 1  ON 23
  eC_4                 1.749669e+03 1 1  ON 24
  eC_5                 1.743359e+03 1 1  ON 25
  eC_6                 1.725062e+03 1 1  ON 26
  eC_7                 1.707947e+03 1 1  ON 27
  eC_8                 1.668123e+03 1 1  ON 28
  eC_9                 1.743153e+03 1 1  ON 29
  eH_0                -1.382830e+02 1 1  ON 30
  eH_1                -1.365866e+02 1 1  ON 31
  eH_2                -1.301521e+02 1 1  ON 32
  eH_3                -1.264835e+02 1 1  ON 33
  eH_4                -1.117541e+02 1 1  ON 34
  eH_5                -9.863644e+01 1 1  ON 35
  eH_6                -8.517327e+01 1 1  ON 36
  eH_7                -9.880676e+01 1 1  ON 37
  eH_8                -2.899749e+01 1 1  ON 38
  eH_9                -5.429426e+00 1 1  ON 39
 uuC_0                -4.963567e+00 1 1  ON 40
 uuC_1                -1.157751e+03 1 1  ON 41
 uuC_2                -6.381107e+02 1 1  ON 42
 uuC_3                 1.033073e+03 1 1  ON 43
 uuC_4                 7.608840e+02 1 1  ON 44
 uuC_5                 1.187442e+02 1 1  ON 45
 uuC_6                -2.952961e+03 1 1  ON 46
 uuC_7                 3.161001e+03 1 1  ON 47
 uuC_8                -1.249271e+03 1 1  ON 48
 uuC_9                 1.421270e+03 1 1  ON 49
uuC_10                 1.532235e+03 1 1  ON 50
uuC_11                -2.986638e+03 1 1  ON 51
uuC_12                 1.148809e+03 1 1  ON 52
uuC_13                -1.984741e+03 1 1  ON 53
uuC_14                -2.902784e+02 1 1  ON 54
uuC_15                -1.173224e+02 1 1  ON 55
uuC_16                -8.813699e+02 1 1  ON 56
uuC_17                -3.780774e+03 1 1  ON 57
uuC_18                 4.835354e+03 1 1  ON 58
uuC_19                -1.459718e+03 1 1  ON 59
uuC_20                 1.133641e+03 1 1  ON 60
uuC_21                -9.337642e+02 1 1  ON 61
uuC_22                 3.366818e+02 1 1  ON 62
uuC_23                -4.102205e+02 1 1  ON 63
uuC_24                 3.134701e+02 1 1  ON 64
uuC_25                -1.051119e+02 1 1  ON 65
 udC_0                 7.017090e+01 1 1  ON 66
 udC_1                 9.324339e+01 1 1  ON 67
 udC_2                -1.308096e+02 1 1  ON 68
 udC_3                -7.659654e+01 1 1  ON 69
 udC_4                 2.490947e+00 1 1  ON 70
 udC_5                -1.672461e+01 1 1  ON 71
 udC_6                 6.358006e+01 1 1  ON 72
 udC_7                -8.341870e+01 1 1  ON 73
 udC_8                -1.215583e+02 1 1  ON 74
 udC_9                -3.135224e+01 1 1  ON 75
udC_10                -8.493913e+01 1 1  ON 76
udC_11                 1.268539e+02 1 1  ON 77
udC_12                 3.443112e+01 1 1  ON 78
udC_13                 2.946307e+01 1 1  ON 79
udC_14                -1.405170e+01 1 1  ON 80
udC_15                -5.495581e+00 1 1  ON 81
udC_16                 4.515822e+01 1 1  ON 82
udC_17                 2.973603e+00 1 1  ON 83
udC_18                 4.129563e+01 1 1  ON 84
udC_19                -4.594170e+01 1 1  ON 85
udC_20                -9.647045e+00 1 1  ON 86
udC_21                -4.240280e+01 1 1  ON 87
udC_22                 1.890740e+01 1 1  ON 88
udC_23                 1.645813e+00 1 1  ON 89
udC_24                 2.464046e+01 1 1  ON 90
udC_25                -9.071425e+00 1 1  ON 91
 uuH_0                 3.850104e-01 1 1  ON 92
 uuH_1                 5.003006e+00 1 1  ON 93
 uuH_2                -5.288637e+00 1 1  ON 94
 uuH_3                 5.814929e+00 1 1  ON 95
 uuH_4                 6.734751e+00 1 1  ON 96
 uuH_5                -1.119914e+00 1 1  ON 97
 uuH_6                 3.255587e+01 1 1  ON 98
 uuH_7                -6.410789e+01 1 1  ON 99
 uuH_8                -5.041527e+01 1 1  ON 100
 uuH_9                -1.442080e+01 1 1  ON 101
uuH_10                 1.956468e+00 1 1  ON 102
uuH_11                 6.400281e+01 1 1  ON 103
uuH_12                 1.981383e+01 1 1  ON 104
uuH_13                -1.446518e+01 1 1  ON 105
uuH_14                -3.404460e+01 1 1  ON 106
uuH_15                 2.042069e+00 1 1  ON 107
uuH_16                 5.788042e+01 1 1  ON 108
uuH_17                -4.387884e+01 1 1  ON 109
uuH_18                -6.819162e+01 1 1  ON 110
uuH_19                 5.188926e-01 1 1  ON 111
uuH_20                -1.188112e+01 1 1  ON 112
uuH_21                 3.679809e+01 1 1  ON 113
uuH_22                -7.363634e+00 1 1  ON 114
uuH_23                 6.493656e+00 1 1  ON 115
uuH_24                -1.640862e+01 1 1  ON 116
uuH_25                 4.546838e+00 1 1  ON 117
 udH_0                -2.166441e+00 1 1  ON 118
 udH_1                -1.429585e-01 1 1  ON 119
 udH_2                 3.487519e+00 1 1  ON 120
 udH_3                 8.178750e-01 1 1  ON 121
 udH_4                -4.189899e-01 1 1  ON 122
 udH_5                -1.865163e-02 1 1  ON 123
 udH_6                 1.857436e+00 1 1  ON 124
 udH_7                -2.384032e+00 1 1  ON 125
 udH_8                -2.517837e+00 1 1  ON 126
 udH_9                 1.130079e+00 1 1  ON 127
udH_10                 8.041241e-01 1 1  ON 128
udH_11                 5.627930e+00 1 1  ON 129
udH_12                 1.011395e+00 1 1  ON 130
udH_13                -3.620287e+00 1 1  ON 131
udH_14                -4.459062e+00 1 1  ON 132
udH_15                 7.954299e-01 1 1  ON 133
udH_16                -3.298665e+00 1 1  ON 134
udH_17                -4.432070e+00 1 1  ON 135
udH_18                -1.373694e+01 1 1  ON 136
udH_19                 3.864775e+00 1 1  ON 137
udH_20                 5.160170e+00 1 1  ON 138
udH_21                 6.395006e+00 1 1  ON 139
udH_22                -2.680950e+00 1 1  ON 140
udH_23                -3.198174e+00 1 1  ON 141
udH_24                -1.922132e+00 1 1  ON 142
udH_25                 1.187699e+00 1 1  ON 143
  </optVariables>
   Restore the number of walkers to 1, removing 0 walkers.
</opt>
</optimization-report>
  QMC Execution time = 301.5 secs

=========================================================
  Start QMCFixedSampleLinearOptimize
  File Root qmc.dump.s013 append = no 
=========================================================
  Skip QMCDriver::putQMCInfo 
  Resetting Properties of the walkers 1 x 14

=========================================================
  Start VMC
  File Root qmc.dump.s013 append = no 
=========================================================
Using existing walkers 
  Resetting Properties of the walkers 1 x 14

<vmc function="put">
  qmc_counter=9  my_counter=0
  time step      = 0.5
  blocks         = 40
  steps          = 100
  substeps       = 5
  current        = 0
  target samples = 1.6e+04
  walkers/mpi    = 1

  stepsbetweensamples = 1
  SpinMoves      = no
<parameter name="blocks" condition="int">40</parameter>
<parameter name="blocks_between_recompute" condition="int">0</parameter>
<parameter name="check_properties" condition="int">100</parameter>
<parameter name="checkproperties" condition="int">100</parameter>
<parameter name="current" condition="int">0</parameter>
<parameter name="dmcwalkersperthread" condition="real">4000</parameter>
<parameter name="maxcpusecs" condition="real">3.6e+05</parameter>
<parameter name="record_configs" condition="int">0</parameter>
<parameter name="record_walkers" condition="int">1</parameter>
<parameter name="recordconfigs" condition="int">0</parameter>
<parameter name="recordwalkers" condition="int">1</parameter>
<parameter name="rewind" condition="int">0</parameter>
<parameter name="samples" condition="real">1.6e+04</parameter>
<parameter name="samplesperthread" condition="real">4000</parameter>
<parameter name="spinmass" condition="double">1</parameter>
<parameter name="spinmoves" condition="string">no</parameter>
<parameter name="steps" condition="int">100</parameter>
<parameter name="stepsbetweensamples" condition="int">1</parameter>
<parameter name="store_configs" condition="int">0</parameter>
<parameter name="storeconfigs" condition="int">0</parameter>
<parameter name="sub_steps" condition="int">5</parameter>
<parameter name="substeps" condition="int">5</parameter>
<parameter name="tau" condition="au">0.5</parameter>
<parameter name="time_step" condition="au">0.5</parameter>
<parameter name="timestep" condition="au">0.5</parameter>
<parameter name="use_drift" condition="string">no</parameter>
<parameter name="usedrift" condition="string">no</parameter>
<parameter name="walkers" condition="int">1</parameter>
<parameter name="warmup_steps" condition="int">5</parameter>
<parameter name="warmupsteps" condition="int">5</parameter>
  DumpConfig==false Nothing (configurations, state) will be saved.
  Walker Samples are dumped every 1 steps.
</vmc>
    Restarting, cummulative properties:
      energy     = 933.1
      variance   = 0
      r2accepted = 1e-10
      r2proposed = 1e-10
  Set drift_modifier UNR parameter a = 1
 Using QMCCostFunction::QMCCostFunction
 Using Default Cost Function: Cost = <|E-E_ff|^2>
  Set drift_modifier UNR parameter a = 1.0000e+00
  EstimatorManagerBase::add replace LocalEnergy estimator.
<optimization-report>
<vmc stage="main" blocks="40">
  Cannot make clones again. Use existing 1 clones
  Initial partition of walkers 0 1 

  Using Particle by Particle moves
  Walker moves without drift
  Total Sample Size   =16000
  Walker distribution on root = 0 1 
  Using Locality Approximation
===== Memory Usage after the buffer registration =====
Available memory on node 0, free + buffers : 92570 MB
Memory footprint by rank 0 on node 0       : 108 MB
==================================================
  Anonymous Buffer size per walker : 1756552 Bytes.
MEMORY increase 1 MB VMC::resetRun
====================================================
  SimpleFixedNodeBranch::finalize after a VMC block
    QMC counter        = 13
    time step          = 0.5
    reference energy   = 976.266
    reference variance = 43377.5
====================================================
  Execution time = 2.1455e+02
</vmc>
<opt stage="setup">
  <log>
   Reading configurations from h5FileRoot qmc.dump.s013
  QMCCostFunction is created with 1 threads.
  Using Nonlocal PP in Opt: no
   Number of samples loaded to each thread : 4000 
  VMC Eavg = 9.9541e+02
  VMC Evar = 1.6274e+05
  Total weights = 1.6000e+04
  Execution time = 8.2590e+01
  </log>
</opt>
<opt stage="main" walkers="16000">
  <log>

*****************************************
Building overlap and Hamiltonian matrices
*****************************************

Among totally 144 optimized parameters, largest LM parameter change : 1.8898e+01 at parameter 29

******************************************************************************
Init Cost =   1.7170e+04    New Cost =   1.5364e+04  Delta Cost =  -1.8067e+03
******************************************************************************

The new set of parameters is valid. Updating the trial wave function!

*****************************************************************************
Applying the update for shift_i =   1.0000e-02     and shift_s =   7.2408e+02
*****************************************************************************
  Execution time = 3.0043e+02
  </log>
  <optVariables href="qmc.dump.s013.opt.xml">
  uu_0                -2.781181e-01 1 1  ON 0
  uu_1                -5.255385e-01 1 1  ON 1
  uu_2                -6.901571e-01 1 1  ON 2
  uu_3                -8.139624e-01 1 1  ON 3
  uu_4                -8.393020e-01 1 1  ON 4
  uu_5                -8.963664e-01 1 1  ON 5
  uu_6                -7.302472e-01 1 1  ON 6
  uu_7                -8.197556e-01 1 1  ON 7
  uu_8                 1.722319e-01 1 1  ON 8
  uu_9                -1.771779e-02 1 1  ON 9
  ud_0                -3.353497e+00 1 1  ON 10
  ud_1                -3.648046e+00 1 1  ON 11
  ud_2                -3.793055e+00 1 1  ON 12
  ud_3                -3.922665e+00 1 1  ON 13
  ud_4                -3.921602e+00 1 1  ON 14
  ud_5                -3.929059e+00 1 1  ON 15
  ud_6                -3.796602e+00 1 1  ON 16
  ud_7                -3.833063e+00 1 1  ON 17
  ud_8                -3.087392e+00 1 1  ON 18
  ud_9                -4.004602e+00 1 1  ON 19
  eC_0                 1.786053e+03 1 1  ON 20
  eC_1                 1.767664e+03 1 1  ON 21
  eC_2                 1.766735e+03 1 1  ON 22
  eC_3                 1.755094e+03 1 1  ON 23
  eC_4                 1.749669e+03 1 1  ON 24
  eC_5                 1.743359e+03 1 1  ON 25
  eC_6                 1.725062e+03 1 1  ON 26
  eC_7                 1.707947e+03 1 1  ON 27
  eC_8                 1.668123e+03 1 1  ON 28
  eC_9                 1.724255e+03 1 1  ON 29
  eH_0                -1.382830e+02 1 1  ON 30
  eH_1                -1.365866e+02 1 1  ON 31
  eH_2                -1.301521e+02 1 1  ON 32
  eH_3                -1.264835e+02 1 1  ON 33
  eH_4                -1.117541e+02 1 1  ON 34
  eH_5                -9.863644e+01 1 1  ON 35
  eH_6                -8.517327e+01 1 1  ON 36
  eH_7                -1.137964e+02 1 1  ON 37
  eH_8                -2.364449e+01 1 1  ON 38
  eH_9                -5.860422e-01 1 1  ON 39
 uuC_0                -4.963567e+00 1 1  ON 40
 uuC_1                -1.157751e+03 1 1  ON 41
 uuC_2                -6.381107e+02 1 1  ON 42
 uuC_3                 1.033073e+03 1 1  ON 43
 uuC_4                 7.608840e+02 1 1  ON 44
 uuC_5                 1.187442e+02 1 1  ON 45
 uuC_6                -2.952961e+03 1 1  ON 46
 uuC_7                 3.161001e+03 1 1  ON 47
 uuC_8                -1.249271e+03 1 1  ON 48
 uuC_9                 1.421270e+03 1 1  ON 49
uuC_10                 1.532235e+03 1 1  ON 50
uuC_11                -2.986638e+03 1 1  ON 51
uuC_12                 1.148809e+03 1 1  ON 52
uuC_13                -1.984741e+03 1 1  ON 53
uuC_14                -2.902784e+02 1 1  ON 54
uuC_15                -1.173224e+02 1 1  ON 55
uuC_16                -8.813699e+02 1 1  ON 56
uuC_17                -3.780774e+03 1 1  ON 57
uuC_18                 4.835354e+03 1 1  ON 58
uuC_19                -1.459718e+03 1 1  ON 59
uuC_20                 1.133641e+03 1 1  ON 60
uuC_21                -9.337642e+02 1 1  ON 61
uuC_22                 3.366818e+02 1 1  ON 62
uuC_23                -4.102205e+02 1 1  ON 63
uuC_24                 3.134701e+02 1 1  ON 64
uuC_25                -1.051119e+02 1 1  ON 65
 udC_0                 7.017090e+01 1 1  ON 66
 udC_1                 9.324339e+01 1 1  ON 67
 udC_2                -1.308096e+02 1 1  ON 68
 udC_3                -7.659654e+01 1 1  ON 69
 udC_4                 2.490947e+00 1 1  ON 70
 udC_5                -1.672461e+01 1 1  ON 71
 udC_6                 6.358006e+01 1 1  ON 72
 udC_7                -8.341870e+01 1 1  ON 73
 udC_8                -1.215583e+02 1 1  ON 74
 udC_9                -3.135224e+01 1 1  ON 75
udC_10                -8.493913e+01 1 1  ON 76
udC_11                 1.268539e+02 1 1  ON 77
udC_12                 3.443112e+01 1 1  ON 78
udC_13                 2.946307e+01 1 1  ON 79
udC_14                -1.405170e+01 1 1  ON 80
udC_15                -5.495581e+00 1 1  ON 81
udC_16                 4.515822e+01 1 1  ON 82
udC_17                 2.973603e+00 1 1  ON 83
udC_18                 4.129563e+01 1 1  ON 84
udC_19                -4.594170e+01 1 1  ON 85
udC_20                -9.647045e+00 1 1  ON 86
udC_21                -4.240280e+01 1 1  ON 87
udC_22                 1.890740e+01 1 1  ON 88
udC_23                 1.645813e+00 1 1  ON 89
udC_24                 2.464046e+01 1 1  ON 90
udC_25                -9.071425e+00 1 1  ON 91
 uuH_0                 3.850104e-01 1 1  ON 92
 uuH_1                 5.003006e+00 1 1  ON 93
 uuH_2                -5.288637e+00 1 1  ON 94
 uuH_3                 5.814929e+00 1 1  ON 95
 uuH_4                 6.734751e+00 1 1  ON 96
 uuH_5                -1.119914e+00 1 1  ON 97
 uuH_6                 3.255587e+01 1 1  ON 98
 uuH_7                -6.410789e+01 1 1  ON 99
 uuH_8                -5.041527e+01 1 1  ON 100
 uuH_9                -1.442080e+01 1 1  ON 101
uuH_10                 1.956468e+00 1 1  ON 102
uuH_11                 6.400281e+01 1 1  ON 103
uuH_12                 1.981383e+01 1 1  ON 104
uuH_13                -1.446518e+01 1 1  ON 105
uuH_14                -3.404460e+01 1 1  ON 106
uuH_15                 2.042069e+00 1 1  ON 107
uuH_16                 5.788042e+01 1 1  ON 108
uuH_17                -4.387884e+01 1 1  ON 109
uuH_18                -6.819162e+01 1 1  ON 110
uuH_19                 5.188926e-01 1 1  ON 111
uuH_20                -1.188112e+01 1 1  ON 112
uuH_21                 3.679809e+01 1 1  ON 113
uuH_22                -7.363634e+00 1 1  ON 114
uuH_23                 6.493656e+00 1 1  ON 115
uuH_24                -1.640862e+01 1 1  ON 116
uuH_25                 4.546838e+00 1 1  ON 117
 udH_0                -2.166441e+00 1 1  ON 118
 udH_1                -1.429585e-01 1 1  ON 119
 udH_2                 3.487519e+00 1 1  ON 120
 udH_3                 8.178750e-01 1 1  ON 121
 udH_4                -4.189899e-01 1 1  ON 122
 udH_5                -1.865163e-02 1 1  ON 123
 udH_6                 1.857436e+00 1 1  ON 124
 udH_7                -2.384032e+00 1 1  ON 125
 udH_8                -2.517837e+00 1 1  ON 126
 udH_9                 1.130079e+00 1 1  ON 127
udH_10                 8.041241e-01 1 1  ON 128
udH_11                 5.627930e+00 1 1  ON 129
udH_12                 1.011395e+00 1 1  ON 130
udH_13                -3.620287e+00 1 1  ON 131
udH_14                -4.459062e+00 1 1  ON 132
udH_15                 7.954299e-01 1 1  ON 133
udH_16                -3.298665e+00 1 1  ON 134
udH_17                -4.432070e+00 1 1  ON 135
udH_18                -1.373694e+01 1 1  ON 136
udH_19                 3.864775e+00 1 1  ON 137
udH_20                 5.160170e+00 1 1  ON 138
udH_21                 6.395006e+00 1 1  ON 139
udH_22                -2.680950e+00 1 1  ON 140
udH_23                -3.198174e+00 1 1  ON 141
udH_24                -1.922132e+00 1 1  ON 142
udH_25                 1.187699e+00 1 1  ON 143
  </optVariables>
   Restore the number of walkers to 1, removing 0 walkers.
</opt>
</optimization-report>
  QMC Execution time = 300.5 secs
  Total Execution time = 4065 secs

=========================================================
  A new xml input file : qmc.dump.s013.cont.xml
