mkdir: cannot create directory '/global/cscratch1/sd/haihan/gamess_44817172': File exists
----- GAMESS execution script 'rungms' -----
This job is running on host nid02612
under operating system Linux at Tue Jul 27 06:55:55 PDT 2021
Slurm has assigned the following compute nodes to this run:
nid02612
Available scratch disk space (Kbyte units) at beginning of the job is
Filesystem                                                 1K-blocks           Used     Available Use% Mounted on
10.100.104.4@o2ib4000:10.101.104.5@o2ib4001:/snx11168 29531080226208 21275812258688 7956268213448  73% /global/cscratch1
GAMESS temporary binary files will be written to /global/cscratch1/sd/haihan/gamess_44817172
GAMESS supplementary output files will be written to /global/cscratch1/sd/haihan/gamess_44817172
Copying input file hf.inp to your run's scratch directory...
cp hf.inp /global/cscratch1/sd/haihan/gamess_44817172/hf.F05
unset echo
setenv DDI_DS_PER_NODE 1
setenv OMP_NUM_THREADS 1
setenv OMP_PROC_BIND spread
setenv OMP_PLACES cores
chdir /global/cscratch1/sd/haihan/gamess_44817172/hf
sbcast --compress=lz4 /usr/common/software/gamess/30SEP2019R2/intel/19.0.3.199/hsw/bin/gamess.00.x /tmp/gamess
srun -n 8 -c 2 --cpu_bind=cores /tmp/gamess hf
          ******************************************************
          *         GAMESS VERSION = 30 SEP 2019 (R2)          *
          *             FROM IOWA STATE UNIVERSITY             *
          * M.W.SCHMIDT, K.K.BALDRIDGE, J.A.BOATZ, S.T.ELBERT, *
          *   M.S.GORDON, J.H.JENSEN, S.KOSEKI, N.MATSUNAGA,   *
          *          K.A.NGUYEN, S.J.SU, T.L.WINDUS,           *
          *       TOGETHER WITH M.DUPUIS, J.A.MONTGOMERY       *
          *         J.COMPUT.CHEM.  14, 1347-1363(1993)        *
          **************** 64 BIT LINUX VERSION ****************

  SINCE 1993, STUDENTS AND POSTDOCS WORKING AT IOWA STATE UNIVERSITY
  AND ALSO IN THEIR VARIOUS JOBS AFTER LEAVING ISU HAVE MADE IMPORTANT
  CONTRIBUTIONS TO THE CODE:
     IVANA ADAMOVIC, CHRISTINE AIKENS, YURI ALEXEEV, POOJA ARORA,
     ANDREY ASADCHEV, ROB BELL, PRADIPTA BANDYOPADHYAY, JONATHAN BENTZ,
     COLLEEN BERTONI, BRETT BODE, KURT BRORSEN, CALEB CARLIN, GALINA CHABAN,
     WEI CHEN, CHEOL HO CHOI, PAUL DAY, ALBERT DEFUSCO, NUWAN DESILVA,
     TIM DUDLEY, DMITRI FEDOROV, ALEX FINDLATER, GRAHAM FLETCHER, 
     MARK FREITAG, KURT GLAESEMANN, EMILIE B GUIDEZ, ANASTASIA GUNINA, 
     DAN KEMP, SAROM SOK LEANG, GRANT MERRILL,
     NORIYUKI MINEZAWA, JONATHAN MULLIN,
     TAKESHI NAGATA, SEAN NEDD, HEATHER NETZLOFF, BOSILJKA NJEGIC, RYAN OLSON,
     MIKE PAK, BUU PHAM, DAVID POOLE,
     SPENCER PRUITT, LUKE ROSKOP, TOSAPORN SATTASATHUCHANA,
     JIM SHOEMAKER, LYUDMILA SLIPCHENKO,
     TONY SMITH, JIE SONG, TETSUYA TAKETSUGU, SIMON WEBB,
     JORGE LUIS GALVEZ VALLEJO, PENG XU, SOOHAENG YOO,
     FEDERICO ZAHARIEV

  ADDITIONAL CODE HAS BEEN PROVIDED BY COLLABORATORS IN OTHER GROUPS:
     IOWA STATE UNIVERSITY:
          JOE IVANIC, AARON WEST, LAIMUTIS BYTAUTAS, KLAUS RUEDENBERG
     UNIVERSITY OF TOKYO: KIMIHIKO HIRAO, TAKAHITO NAKAJIMA,
          TAKAO TSUNEDA, MUNEAKI KAMIYA, SUSUMU YANAGISAWA,
          KIYOSHI YAGI, MAHITO CHIBA, SEIKEN TOKURA, NAOAKI KAWAKAMI
     UNIVERSITY OF AARHUS: FRANK JENSEN
     UNIVERSITY OF IOWA: VISVALDAS KAIRYS, HUI LI
     NATIONAL INST. OF STANDARDS AND TECHNOLOGY: WALT STEVENS, DAVID GARMER
     UNIVERSITY OF PISA: BENEDETTA MENNUCCI, JACOPO TOMASI
     UNIVERSITY OF MEMPHIS: HENRY KURTZ, PRAKASHAN KORAMBATH
     UNIVERSITY OF ALBERTA: TOBY ZENG, MARIUSZ KLOBUKOWSKI
     UNIVERSITY OF NEW ENGLAND: MARK SPACKMAN
     MIE UNIVERSITY: HIROAKI UMEDA
     NAT. INST. OF ADVANCED INDUSTRIAL SCIENCE AND TECHNOLOGY: KAZUO KITAURA
     MICHIGAN STATE UNIVERSITY:
          KAROL KOWALSKI, MARTA WLOCH, JEFFREY GOUR, JESSE LUTZ,
          WEI LI, JUN SHEN, J. EMILIANO DEUSTUA, PIOTR PIECUCH
     UNIVERSITY OF MINNESOTA:
          ANDREW SAND, PRACHI SHARMA, YINAN SHU
     UNIVERSITY OF SILESIA: MONIKA MUSIAL, STANISLAW KUCHARSKI
     FACULTES UNIVERSITAIRES NOTRE-DAME DE LA PAIX:
          OLIVIER QUINET, BENOIT CHAMPAGNE
     UNIVERSITY OF CALIFORNIA - SANTA BARBARA: BERNARD KIRTMAN
     INSTITUTE FOR MOLECULAR SCIENCE:
          KAZUYA ISHIMURA, MICHIO KATOUDA, AND SHIGERU NAGASE
     UNIVERSITY OF NOTRE DAME: ANNA POMOGAEVA, DAN CHIPMAN
     KYUSHU UNIVERSITY:
          HARUYUKI NAKANO,
          FENG LONG GU, JACEK KORCHOWIEC, MARCIN MAKOWSKI, AND YURIKO AOKI,
          HIROTOSHI MORI AND EISAKU MIYOSHI
     PENNSYLVANIA STATE UNIVERSITY:
          TZVETELIN IORDANOV, CHET SWALINA, JONATHAN SKONE,
          SHARON HAMMES-SCHIFFER
     WASEDA UNIVERSITY:
          MASATO KOBAYASHI, TOMOKO AKAMA, TSUGUKI TOUMA,
          TAKESHI YOSHIKAWA, YASUHIRO IKABATA, JUNJI SEINO,
          YUYA NAKAJIMA, HIROMI NAKAI
     NANJING UNIVERSITY: SHUHUA LI
     UNIVERSITY OF NEBRASKA:
          PEIFENG SU, DEJUN SI, NANDUN THELLAMUREGE, YALI WANG, HUI LI
     UNIVERSITY OF ZURICH: ROBERTO PEVERATI, KIM BALDRIDGE
     N. COPERNICUS UNIVERSITY AND JACKSON STATE UNIVERSITY:
          MARIA BARYSZ
     UNIVERSITY OF COPENHAGEN: Jimmy Kromann, CASPER STEINMANN
     TOKYO INSTITUTE OF TECHNOLOGY: HIROYA NAKATA
     NAGOYA UNIVERSITY: YOSHIO NISHIMOTO, STEPHAN IRLE
     MOSCOW STATE UNIVERSITY: VLADIMIR MIRONOV
     A.N.NESMEYANOV INSTITUTE OF ORGANOELEMENT COMPOUNDS OF RUSSIAN ACADEMY OF SCIENCES:
          IGOR S. GERASIMOV
     JOHANNES KEPLER UNIVERSITY LINZ:
          CHRISTIAN FRIEDL


 PARALLEL VERSION RUNNING ON        4 PROCESSORS IN        1 NODES.

 EXECUTION OF GAMESS BEGUN Tue Jul 27 06:56:03 2021

            ECHO OF THE FIRST FEW INPUT CARDS -
 INPUT CARD> $CONTRL                                                                        
 INPUT CARD>     SCFTYP=RHF                                                                 
 INPUT CARD>     MULT=1                                                                     
 INPUT CARD>     ICHARG=0                                                                   
 INPUT CARD>     RUNTYP=energy                                                              
 INPUT CARD>     MAXIT=200                                                                  
 INPUT CARD>     PP=READ                                                                    
 INPUT CARD>     UNITS=ANGS                                                                 
 INPUT CARD> $END                                                                           
 INPUT CARD>                                                                                
 INPUT CARD> $SYSTEM                                                                        
 INPUT CARD>    MWORDS=1000                                                                 
 INPUT CARD>    MEMDDI=1000                                                                 
 INPUT CARD> $END                                                                           
 INPUT CARD>                                                                                
 INPUT CARD> $GUESS                                                                         
 INPUT CARD>     GUESS=HUCKEL                                                               
 INPUT CARD> $END                                                                           
 INPUT CARD>                                                                                
 INPUT CARD> $SCF DAMP=.T. SOSCF=.F. SHIFT=.T. RSTRCT=.T. DIIS=.T. MVOQ=+4 $end             
 INPUT CARD>                                                                                
 INPUT CARD> $DATA                                                                          
 INPUT CARD>BeH2 calculation                                                                
 INPUT CARD>C1                                                                              
 INPUT CARD>Be 4 0.0000  0.0000  0.0000                                                     
 INPUT CARD>S  9                                                                            
 INPUT CARD>  1      15.965877  0.00069000                                                  
 INPUT CARD>  2       7.367361  -0.00037700                                                 
 INPUT CARD>  3       3.399626  0.02406900                                                  
 INPUT CARD>  4       1.568738  -0.11198900                                                 
 INPUT CARD>  5       0.723885  -0.07644200                                                 
 INPUT CARD>  6       0.334032  0.13574400                                                  
 INPUT CARD>  7       0.154137  0.41851500                                                  
 INPUT CARD>  8       0.071126  0.46292400                                                  
 INPUT CARD>  9       0.032821  0.12826600                                                  
 INPUT CARD>P  9                                                                            
 INPUT CARD>  1      16.554942  0.00034100                                                  
 INPUT CARD>  2       7.526050  0.00322800                                                  
 INPUT CARD>  3       3.421421  0.01766000                                                  
 INPUT CARD>  4       1.555414  0.03866400                                                  
 INPUT CARD>  5       0.707108  0.09863900                                                  
 INPUT CARD>  6       0.321458  0.23125900                                                  
 INPUT CARD>  7       0.146138  0.38710900                                                  
 INPUT CARD>  8       0.066436  0.33944800                                                  
 INPUT CARD>  9       0.030203  0.08910200                                                  
 INPUT CARD>S  1                                                                            
 INPUT CARD>  1       0.345184  1.00000000                                                  
 INPUT CARD>S  1                                                                            
 INPUT CARD>  1       0.053614  1.00000000                                                  
 INPUT CARD>S  1                                                                            
 1000000000 WORDS OF MEMORY AVAILABLE


     RUN TITLE
     ---------
 BeH2 calculation                                                                

 THE POINT GROUP OF THE MOLECULE IS C1      
 THE ORDER OF THE PRINCIPAL AXIS IS     0

 ATOM      ATOMIC                      COORDINATES (BOHR)
           CHARGE         X                   Y                   Z
 BE          4.0     0.0000000000        0.0000000000        0.0000000000
 H           1.0     0.0000000000        0.0000000000        2.5065325501
 H           1.0     0.0000000000        0.0000000000       -2.5065325501

          INTERNUCLEAR DISTANCES (ANGS.)
          ------------------------------

                1 BE         2 H          3 H     

   1 BE      0.0000000    1.3264000 *  1.3264000 *
   2 H       1.3264000 *  0.0000000    2.6528000 *
   3 H       1.3264000 *  2.6528000 *  0.0000000  

  * ... LESS THAN  3.000


     ATOMIC BASIS SET
     ----------------
 THE CONTRACTED PRIMITIVE FUNCTIONS HAVE BEEN UNNORMALIZED
 THE CONTRACTED BASIS FUNCTIONS ARE NOW NORMALIZED TO UNITY

  SHELL TYPE  PRIMITIVE        EXPONENT          CONTRACTION COEFFICIENT(S)

 BE        

      1   S       1            15.9658770    0.000689999755
      1   S       2             7.3673610   -0.000376999866
      1   S       3             3.3996260    0.024068991438
      1   S       4             1.5687380   -0.111988960163
      1   S       5             0.7238850   -0.076441972808
      1   S       6             0.3340320    0.135743951713
      1   S       7             0.1541370    0.418514851126
      1   S       8             0.0711260    0.462923835329
      1   S       9             0.0328210    0.128265954373

      2   P      10            16.5549420    0.000340999822
      2   P      11             7.5260500    0.003227998312
      2   P      12             3.4214210    0.017659990768
      2   P      13             1.5554140    0.038663979788
      2   P      14             0.7071080    0.098638948434
      2   P      15             0.3214580    0.231258879104
      2   P      16             0.1461380    0.387108797630
      2   P      17             0.0664360    0.339447822546
      2   P      18             0.0302030    0.089101953420

      3   S      19             0.3451840    1.000000000000

      4   S      20             0.0536140    1.000000000000

      5   S      21             0.0214460    1.000000000000

      6   P      22             1.3520430    1.000000000000

      7   P      23             0.2258420    1.000000000000

      8   P      24             0.0903370    1.000000000000

      9   D      25             0.3826920    1.000000000000

     10   D      26             0.1763990    1.000000000000

     11   D      27             0.0705600    1.000000000000

     12   F      28             0.3234520    1.000000000000

     13   F      29             0.1293810    1.000000000000

 H         

     14   S      30            23.8431850    0.004114899701
     14   S      31            10.2124430    0.010464399240
     14   S      32             4.3741640    0.028011097966
     14   S      33             1.8735290    0.075886194491
     14   S      34             0.8024650    0.182106186780
     14   S      35             0.3437090    0.348521374698
     14   S      36             0.1472170    0.378231272542
     14   S      37             0.0630550    0.116424091548

     15   S      38             0.0292920    1.000000000000

     16   S      39             0.0917910    1.000000000000

     17   S      40             0.2876370    1.000000000000

     18   P      41             0.1061050    1.000000000000

     19   P      42             0.3939540    1.000000000000

     20   P      43             1.4626940    1.000000000000

     21   D      44             0.2958830    1.000000000000

     22   D      45             1.0658410    1.000000000000

 H         

     23   S      46            23.8431850    0.004114899701
     23   S      47            10.2124430    0.010464399240
     23   S      48             4.3741640    0.028011097966
     23   S      49             1.8735290    0.075886194491
     23   S      50             0.8024650    0.182106186780
     23   S      51             0.3437090    0.348521374698
     23   S      52             0.1472170    0.378231272542
     23   S      53             0.0630550    0.116424091548

     24   S      54             0.0292920    1.000000000000

     25   S      55             0.0917910    1.000000000000

     26   S      56             0.2876370    1.000000000000

     27   P      57             0.1061050    1.000000000000

     28   P      58             0.3939540    1.000000000000

     29   P      59             1.4626940    1.000000000000

     30   D      60             0.2958830    1.000000000000

     31   D      61             1.0658410    1.000000000000

 TOTAL NUMBER OF BASIS SET SHELLS             =   31
 NUMBER OF CARTESIAN GAUSSIAN BASIS FUNCTIONS =  104
 NUMBER OF ELECTRONS                          =    6
 CHARGE OF MOLECULE                           =    0
 SPIN MULTIPLICITY                            =    1
 NUMBER OF OCCUPIED ORBITALS (ALPHA)          =    3
 NUMBER OF OCCUPIED ORBITALS (BETA )          =    3
 TOTAL NUMBER OF ATOMS                        =    3
 THE NUCLEAR REPULSION ENERGY IS        3.3911388861
 NOTE THIS RUN IS USING CORE POTENTIALS, AND THE NUMBER OF ELECTRONS,
 OCCUPIED ORBITALS, AND NUCLEAR REPULSION ENERGY WILL BE ADJUSTED BELOW
 AFTER REMOVAL OF THE CORE CHARGES.

 THIS MOLECULE IS RECOGNIZED AS BEING LINEAR,
 ORBITAL LZ DEGENERACY TOLERANCE ETOLLZ= 1.00E-06

     $CONTRL OPTIONS
     ---------------
 SCFTYP=RHF          RUNTYP=ENERGY       EXETYP=RUN     
 MPLEVL=       0     CITYP =NONE         CCTYP =NONE         VBTYP =NONE    
 DFTTYP=NONE         TDDFT =NONE    
 MULT  =       1     ICHARG=       0     NZVAR =       0     COORD =UNIQUE  
 PP    =READ         RELWFN=NONE         LOCAL =NONE         NUMGRD=       F
 ISPHER=      -1     NOSYM =       0     MAXIT =     200     UNITS =ANGS    
 PLTORB=       F     MOLPLT=       F     AIMPAC=       F     FRIEND=        
 NPRINT=       7     IREST =       0     GEOM  =INPUT   
 NORMF =       0     NORMP =       0     ITOL  =      20     ICUT  =       9
 INTTYP=BEST         GRDTYP=BEST         QMTTOL= 1.0E-06

     $SYSTEM OPTIONS
     ---------------
  REPLICATED MEMORY=  1000000000 WORDS (ON EVERY NODE).
 DISTRIBUTED MEMDDI=        1000 MILLION WORDS IN AGGREGATE,
 MEMDDI DISTRIBUTED OVER   4 PROCESSORS IS   250000000 WORDS/PROCESSOR.
 TOTAL MEMORY REQUESTED ON EACH PROCESSOR=  1250000000 WORDS.
 TIMLIM=      525600.00 MINUTES, OR     365.0 DAYS.
 PARALL= T  BALTYP=  DLB     KDIAG=    0  COREFL= F
 MXSEQ2=     300 MXSEQ3=     150  mem10=         0

          --------------
          ECP POTENTIALS
          --------------

 PARAMETERS FOR "BE-CCECP" ON ATOM    1 WITH ZCORE   2 AND LMAX  1 ARE
 FOR L= 1      COEFF    N           ZETA
    1        2.00000    1       17.94900
    2       35.89800    3       24.13200
    3      -12.77500    2       20.13800
    4       -2.96001    2        4.33317
 FOR L= 0      COEFF    N           ZETA
    1       12.66392    2        2.48740

 PARAMETERS FOR "H-CCECP " ON ATOM    2 WITH ZCORE   0 AND LMAX  1 ARE
 FOR L= 1      COEFF    N           ZETA
    1        1.00000    1       21.24360
    2       21.24360    3       21.24360
    3      -10.85192    2       21.77697
 FOR L= 0      COEFF    N           ZETA
    1        0.00000    2        1.00000

 PARAMETERS FOR "H-CCECP " ON ATOM    3 ARE THE SAME AS ATOM   2

 THE ECP RUN REMOVES    2 CORE ELECTRONS, AND THE SAME NUMBER OF PROTONS.
 NUMBER OF ELECTRONS KEPT IN THE CALCULATION IS =    4
 NUMBER OF OCCUPIED ORBITALS (ALPHA) KEPT IS    =    2
 NUMBER OF OCCUPIED ORBITALS (BETA ) KEPT IS    =    2
 THE ADJUSTED NUCLEAR REPULSION ENERGY=        1.7953088221
          ECP ANGULAR INTS.........     0.01 SECONDS

          ----------------
          PROPERTIES INPUT
          ----------------

     MOMENTS            FIELD           POTENTIAL          DENSITY
 IEMOM =       1   IEFLD =       0   IEPOT =       0   IEDEN =       0
 WHERE =COMASS     WHERE =NUCLEI     WHERE =NUCLEI     WHERE =NUCLEI  
 OUTPUT=BOTH       OUTPUT=BOTH       OUTPUT=BOTH       OUTPUT=BOTH    
 IEMINT=       0   IEFINT=       0                     IEDINT=       0
                                                       MORB  =       0
          EXTRAPOLATION IN EFFECT
          DAMPING IN EFFECT
          LEVEL SHIFTING IN EFFECT
          RESTRICTION OF ORBITAL MIXING IN EFFECT
          DIIS IN EFFECT
 ORBITAL PRINTING OPTION: NPREO=     1   104     2     1

     -------------------------------
     INTEGRAL TRANSFORMATION OPTIONS
     -------------------------------
     NWORD  =            0
     CUTOFF = 1.0E-09     MPTRAN =       0
     DIRTRF =       F     AOINTS =DUP     

          ----------------------
          INTEGRAL INPUT OPTIONS
          ----------------------
 NOPK  =       1 NORDER=       0 SCHWRZ=       F

     ------------------------------------------
     THE POINT GROUP IS C1 , NAXIS= 0, ORDER= 1
     ------------------------------------------

     DIMENSIONS OF THE SYMMETRY SUBSPACES ARE
 A   =  104

 ..... DONE SETTING UP THE RUN .....
 CPU     0: STEP CPU TIME=     0.79 TOTAL CPU TIME=          0.8 (      0.0 MIN)
 TOTAL WALL CLOCK TIME=          1.3 SECONDS, CPU UTILIZATION IS    59.40%

          ********************
          1 ELECTRON INTEGRALS
          ********************
 TIME TO DO ORDINARY INTEGRALS=      0.21
 TIME TO DO      ECP INTEGRALS=      0.07
 ...... END OF ONE-ELECTRON INTEGRALS ......
 CPU     0: STEP CPU TIME=     0.32 TOTAL CPU TIME=          1.1 (      0.0 MIN)
 TOTAL WALL CLOCK TIME=          1.7 SECONDS, CPU UTILIZATION IS    65.29%

          -------------
          GUESS OPTIONS
          -------------
          GUESS =HUCKEL            NORB  =       0          NORDER=       0
          MIX   =       F          PRTMO =       F          PUNMO =       F
          TOLZ  = 1.0E-08          TOLE  = 1.0E-05
          SYMDEN=       F          PURIFY=       F

 INITIAL GUESS ORBITALS GENERATED BY HUCKEL   ROUTINE.
 HUCKEL GUESS REQUIRES     79579 WORDS.

                    * * * * * WARNING * * * * *
 POSSIBLE LINEAR DEPENDENCE PROBLEMS DETECTED, INPUT QMTTOL= 1.0E-06,
 WITH     1 OVERLAP EIGENVALUES LYING BETWEEN 1.0E-05 AND QMTTOL.
 IF YOU EXPERIENCE SCF CONVERGENCE DIFFICULTIES WITH THE DENSITY ALMOST BUT
 NOT QUITE CONVERGED, YOU MAY NEED TO LOOSEN -QMTTOL- BY A FACTOR 5 TO 10.

 SYMMETRIES FOR INITIAL GUESS ORBITALS FOLLOW.   BOTH SET(S).
     2 ORBITALS ARE OCCUPIED (    0 CORE ORBITALS).
     1=A        2=A        3=A        4=A        5=A        6=A        7=A   
     8=A        9=A       10=A       11=A       12=A   
 ...... END OF INITIAL ORBITAL SELECTION ......
 CPU     0: STEP CPU TIME=     0.32 TOTAL CPU TIME=          1.4 (      0.0 MIN)
 TOTAL WALL CLOCK TIME=          2.5 SECONDS, CPU UTILIZATION IS    57.89%

                    ----------------------
                    AO INTEGRAL TECHNOLOGY
                    ----------------------
     S,P,L SHELL ROTATED AXIS INTEGRALS, REPROGRAMMED BY
        KAZUYA ISHIMURA (IMS) AND JOSE SIERRA (SYNSTAR).
     S,P,D,L SHELL ROTATED AXIS INTEGRALS PROGRAMMED BY
        KAZUYA ISHIMURA (INSTITUTE FOR MOLECULAR SCIENCE).
     S,P,D,F,G SHELL TO TOTAL QUARTET ANGULAR MOMENTUM SUM 5,
        ERIC PROGRAM BY GRAHAM FLETCHER (ELORET AND NASA ADVANCED
        SUPERCOMPUTING DIVISION, AMES RESEARCH CENTER).
     S,P,D,F,G,L SHELL GENERAL RYS QUADRATURE PROGRAMMED BY
        MICHEL DUPUIS (PACIFIC NORTHWEST NATIONAL LABORATORY).

          --------------------
          2 ELECTRON INTEGRALS
          --------------------

 THE -PK- OPTION IS OFF, THE INTEGRALS ARE NOT IN SUPERMATRIX FORM.
 STORING   15000 INTEGRALS/RECORD ON DISK, USING 12 BYTES/INTEGRAL.
 TWO ELECTRON INTEGRAL EVALUATION REQUIRES   99596 WORDS OF MEMORY.
 II,JST,KST,LST =  1  1  1  1 NREC =         1 INTLOC =    1
 II,JST,KST,LST =  2  1  1  1 NREC =         1 INTLOC =    1
 II,JST,KST,LST =  3  1  1  1 NREC =         1 INTLOC =    1
 II,JST,KST,LST =  4  1  1  1 NREC =         1 INTLOC =    8
 II,JST,KST,LST =  5  1  1  1 NREC =         1 INTLOC =   23
 II,JST,KST,LST =  6  1  1  1 NREC =         1 INTLOC =   56
 II,JST,KST,LST =  7  1  1  1 NREC =         1 INTLOC =  191
 II,JST,KST,LST =  8  1  1  1 NREC =         1 INTLOC =  413
 II,JST,KST,LST =  9  1  1  1 NREC =         1 INTLOC =  749
 II,JST,KST,LST = 10  1  1  1 NREC =         1 INTLOC = 2411
 II,JST,KST,LST = 11  1  1  1 NREC =         1 INTLOC = 4925
 II,JST,KST,LST = 12  1  1  1 NREC =         1 INTLOC = 9725
 II,JST,KST,LST = 13  1  1  1 NREC =         2 INTLOC = 2621
 II,JST,KST,LST = 14  1  1  1 NREC =         4 INTLOC = 7349
 II,JST,KST,LST = 15  1  1  1 NREC =         4 INTLOC = 8319
 II,JST,KST,LST = 16  1  1  1 NREC =         5 INTLOC = 2962
 II,JST,KST,LST = 17  1  1  1 NREC =         5 INTLOC =14282
 II,JST,KST,LST = 18  1  1  1 NREC =         6 INTLOC = 3716
 II,JST,KST,LST = 19  1  1  1 NREC =         7 INTLOC = 4007
 II,JST,KST,LST = 20  1  1  1 NREC =         9 INTLOC = 7043
 II,JST,KST,LST = 21  1  1  1 NREC =        11 INTLOC =  196
 II,JST,KST,LST = 22  1  1  1 NREC =        17 INTLOC = 6090
 II,JST,KST,LST = 23  1  1  1 NREC =        23 INTLOC =10811
 II,JST,KST,LST = 24  1  1  1 NREC =        25 INTLOC = 6587
 II,JST,KST,LST = 25  1  1  1 NREC =        26 INTLOC = 6860
 II,JST,KST,LST = 26  1  1  1 NREC =        27 INTLOC =12214
 II,JST,KST,LST = 27  1  1  1 NREC =        29 INTLOC = 6469
 II,JST,KST,LST = 28  1  1  1 NREC =        34 INTLOC = 1882
 II,JST,KST,LST = 29  1  1  1 NREC =        38 INTLOC = 1279
 II,JST,KST,LST = 30  1  1  1 NREC =        44 INTLOC =13117
 II,JST,KST,LST = 31  1  1  1 NREC =        57 INTLOC =13775
 TOTAL NUMBER OF NONZERO TWO-ELECTRON INTEGRALS =             3733261
        251 INTEGRAL RECORDS WERE STORED ON DISK FILE  8.
  ...... END OF TWO-ELECTRON INTEGRALS .....
 CPU     0: STEP CPU TIME=     1.45 TOTAL CPU TIME=          2.9 (      0.0 MIN)
 TOTAL WALL CLOCK TIME=          3.9 SECONDS, CPU UTILIZATION IS    73.10%

          --------------------------
                 RHF SCF CALCULATION
          --------------------------

     NUCLEAR ENERGY =         1.7953088221
     MAXIT =  200     NPUNCH=    2
     EXTRAP=T  DAMP=T  SHIFT=T  RSTRCT=T  DIIS=T  DEM=F  SOSCF=F
     DENSITY MATRIX CONV=  1.00E-05
     MEMORY REQUIRED FOR RHF ITERS=    127808 WORDS.

 ITER EX DEM     TOTAL ENERGY        E CHANGE  DENSITY CHANGE    DIIS ERROR      VIR. SHIFT       DAMPING
   1  0  0       -1.8788219103    -1.8788219103   2.643454239   0.563455778     0.000000000     1.000000000
          * * *   INITIATING DIIS PROCEDURE   * * *
   2  1  0       -2.1572149056    -0.2783929953   0.393175747   0.058562435     0.000000000     1.000000000
   3  2  0       -2.1642487469    -0.0070338412   0.083081605   0.013055160     0.000000000     1.000000000
   4  3  0       -2.1647510691    -0.0005023222   0.008741137   0.002335302     0.000000000     1.000000000
   5  4  0       -2.1647592609    -0.0000081918   0.000913716   0.000116398     0.000000000     1.000000000
   6  5  0       -2.1647592883    -0.0000000275   0.000265694   0.000005039     0.000000000     1.000000000
   7  6  0       -2.1647592884    -0.0000000001   0.000062550   0.000000658     0.000000000     1.000000000
   8  7  0       -2.1647592884    -0.0000000000   0.000008613   0.000000054     0.000000000     1.000000000
   9  8  0       -2.1647592884    -0.0000000000   0.000000240   0.000000006     0.000000000     1.000000000

          -----------------
          DENSITY CONVERGED
          -----------------
     TIME TO FORM FOCK OPERATORS=       0.5 SECONDS (       0.1 SEC/ITER)
     TIME TO SOLVE SCF EQUATIONS=       1.4 SECONDS (       0.2 SEC/ITER)

 FINAL RHF ENERGY IS       -2.1647592884 AFTER   9 ITERATIONS

 GENERATING 102 MVO-S (   2 ORBITALS FROZEN), BY REMOVING  4 ELECTRONS.

 LZ VALUE ANALYSIS FOR THE MOS
 ----------------------------------------
 MO     1 (    1) HAS LZ(WEIGHT)= 0.00(100.0%) 
 MO     2 (    2) HAS LZ(WEIGHT)= 0.00(100.0%) 
 MO     3 (    3) HAS LZ(WEIGHT)=-1.00( 50.0%)  1.00( 50.0%) 
 MO     4 (    3) HAS LZ(WEIGHT)=-1.00( 50.0%)  1.00( 50.0%) 
 MO     5 (    4) HAS LZ(WEIGHT)= 0.00(100.0%) 
 MO     6 (    5) HAS LZ(WEIGHT)= 0.00(100.0%) 
 MO     7 (    6) HAS LZ(WEIGHT)=-1.00( 50.0%)  1.00( 50.0%) 
 MO     8 (    6) HAS LZ(WEIGHT)=-1.00( 50.0%)  1.00( 50.0%) 
 MO     9 (    7) HAS LZ(WEIGHT)= 0.00(100.0%) 
 MO    10 (    8) HAS LZ(WEIGHT)=-2.00( 50.0%)  2.00( 50.0%) 
 MO    11 (    8) HAS LZ(WEIGHT)=-2.00( 50.0%)  2.00( 50.0%) 
 MO    12 (    9) HAS LZ(WEIGHT)=-1.00( 50.0%)  1.00( 50.0%) 
 MO    13 (    9) HAS LZ(WEIGHT)=-1.00( 50.0%)  1.00( 50.0%) 
 MO    14 (   10) HAS LZ(WEIGHT)= 0.00(100.0%) 
 MO    15 (   11) HAS LZ(WEIGHT)=-1.00( 50.0%)  1.00( 50.0%) 
 MO    16 (   11) HAS LZ(WEIGHT)=-1.00( 50.0%)  1.00( 50.0%) 
 MO    17 (   12) HAS LZ(WEIGHT)= 0.00(100.0%) 
 MO    18 (   13) HAS LZ(WEIGHT)= 0.00(100.0%) 
 MO    19 (   14) HAS LZ(WEIGHT)=-2.00( 50.0%)  2.00( 50.0%) 
 MO    20 (   14) HAS LZ(WEIGHT)=-2.00( 50.0%)  2.00( 50.0%) 
 MO    21 (   15) HAS LZ(WEIGHT)= 0.00(100.0%) 
 MO    22 (   16) HAS LZ(WEIGHT)=-1.00( 50.0%)  1.00( 50.0%) 
 MO    23 (   16) HAS LZ(WEIGHT)=-1.00( 50.0%)  1.00( 50.0%) 
 MO    24 (   17) HAS LZ(WEIGHT)=-3.00( 50.0%)  3.00( 50.0%) 
 MO    25 (   17) HAS LZ(WEIGHT)=-3.00( 50.0%)  3.00( 50.0%) 
 MO    26 (   18) HAS LZ(WEIGHT)=-2.00( 50.0%)  2.00( 50.0%) 
 MO    27 (   18) HAS LZ(WEIGHT)=-2.00( 50.0%)  2.00( 50.0%) 
 MO    28 (   19) HAS LZ(WEIGHT)= 0.00(100.0%) 
 MO    29 (   20) HAS LZ(WEIGHT)=-1.00( 50.0%)  1.00( 50.0%) 
 MO    30 (   20) HAS LZ(WEIGHT)=-1.00( 50.0%)  1.00( 50.0%) 
 MO    31 (   21) HAS LZ(WEIGHT)= 0.00(100.0%) 
 MO    32 (   22) HAS LZ(WEIGHT)= 0.00(100.0%) 
 MO    33 (   23) HAS LZ(WEIGHT)=-1.00( 50.0%)  1.00( 50.0%) 
 MO    34 (   23) HAS LZ(WEIGHT)=-1.00( 50.0%)  1.00( 50.0%) 
 MO    35 (   24) HAS LZ(WEIGHT)= 0.00(100.0%) 
 MO    36 (   25) HAS LZ(WEIGHT)=-1.00( 50.0%)  1.00( 50.0%) 
 MO    37 (   25) HAS LZ(WEIGHT)=-1.00( 50.0%)  1.00( 50.0%) 
 MO    38 (   26) HAS LZ(WEIGHT)= 0.00(100.0%) 
 MO    39 (   27) HAS LZ(WEIGHT)= 0.00(100.0%) 
 MO    40 (   28) HAS LZ(WEIGHT)= 0.00(100.0%) 
 MO    41 (   29) HAS LZ(WEIGHT)= 0.00(100.0%) 
 MO    42 (   30) HAS LZ(WEIGHT)= 0.00(100.0%) 
 MO    43 (   31) HAS LZ(WEIGHT)=-2.00( 50.0%)  2.00( 50.0%) 
 MO    44 (   31) HAS LZ(WEIGHT)=-2.00( 50.0%)  2.00( 50.0%) 
 MO    45 (   32) HAS LZ(WEIGHT)=-1.00( 50.0%)  1.00( 50.0%) 
 MO    46 (   32) HAS LZ(WEIGHT)=-1.00( 50.0%)  1.00( 50.0%) 
 MO    47 (   33) HAS LZ(WEIGHT)=-1.00( 50.0%)  1.00( 50.0%) 
 MO    48 (   33) HAS LZ(WEIGHT)=-1.00( 50.0%)  1.00( 50.0%) 
 MO    49 (   34) HAS LZ(WEIGHT)= 0.00(100.0%) 
 MO    50 (   35) HAS LZ(WEIGHT)=-2.00( 50.0%)  2.00( 50.0%) 
 MO    51 (   35) HAS LZ(WEIGHT)=-2.00( 50.0%)  2.00( 50.0%) 
 MO    52 (   36) HAS LZ(WEIGHT)=-1.00( 50.0%)  1.00( 50.0%) 
 MO    53 (   36) HAS LZ(WEIGHT)=-1.00( 50.0%)  1.00( 50.0%) 
 MO    54 (   37) HAS LZ(WEIGHT)= 0.00(100.0%) 
 MO    55 (   38) HAS LZ(WEIGHT)=-1.00( 50.0%)  1.00( 50.0%) 
 MO    56 (   38) HAS LZ(WEIGHT)=-1.00( 50.0%)  1.00( 50.0%) 
 MO    57 (   39) HAS LZ(WEIGHT)=-2.00( 50.0%)  2.00( 50.0%) 
 MO    58 (   39) HAS LZ(WEIGHT)=-2.00( 50.0%)  2.00( 50.0%) 
 MO    59 (   40) HAS LZ(WEIGHT)= 0.00(100.0%) 
 MO    60 (   41) HAS LZ(WEIGHT)= 0.00(100.0%) 
 MO    61 (   42) HAS LZ(WEIGHT)=-3.00( 50.0%)  3.00( 50.0%) 
 MO    62 (   42) HAS LZ(WEIGHT)=-3.00( 50.0%)  3.00( 50.0%) 
 MO    63 (   43) HAS LZ(WEIGHT)=-1.00( 50.0%)  1.00( 50.0%) 
 MO    64 (   43) HAS LZ(WEIGHT)=-1.00( 50.0%)  1.00( 50.0%) 
 MO    65 (   44) HAS LZ(WEIGHT)=-2.00( 50.0%)  2.00( 50.0%) 
 MO    66 (   44) HAS LZ(WEIGHT)=-2.00( 50.0%)  2.00( 50.0%) 
 MO    67 (   45) HAS LZ(WEIGHT)= 0.00(100.0%) 
 MO    68 (   46) HAS LZ(WEIGHT)= 0.00(100.0%) 
 MO    69 (   47) HAS LZ(WEIGHT)= 0.00(100.0%) 
 MO    70 (   48) HAS LZ(WEIGHT)=-1.00( 50.0%)  1.00( 50.0%) 
 MO    71 (   48) HAS LZ(WEIGHT)=-1.00( 50.0%)  1.00( 50.0%) 
 MO    72 (   49) HAS LZ(WEIGHT)= 0.00(100.0%) 
 MO    73 (   50) HAS LZ(WEIGHT)= 0.00(100.0%) 
 MO    74 (   51) HAS LZ(WEIGHT)=-1.00( 50.0%)  1.00( 50.0%) 
 MO    75 (   51) HAS LZ(WEIGHT)=-1.00( 50.0%)  1.00( 50.0%) 
 MO    76 (   52) HAS LZ(WEIGHT)=-1.00( 50.0%)  1.00( 50.0%) 
 MO    77 (   52) HAS LZ(WEIGHT)=-1.00( 50.0%)  1.00( 50.0%) 
 MO    78 (   53) HAS LZ(WEIGHT)= 0.00(100.0%) 
 MO    79 (   54) HAS LZ(WEIGHT)= 0.00(100.0%) 
 MO    80 (   55) HAS LZ(WEIGHT)= 0.00(100.0%) 
 MO    81 (   56) HAS LZ(WEIGHT)=-1.00( 50.0%)  1.00( 50.0%) 
 MO    82 (   56) HAS LZ(WEIGHT)=-1.00( 50.0%)  1.00( 50.0%) 
 MO    83 (   57) HAS LZ(WEIGHT)= 0.00(100.0%) 
 MO    84 (   58) HAS LZ(WEIGHT)=-2.00( 50.0%)  2.00( 50.0%) 
 MO    85 (   58) HAS LZ(WEIGHT)=-2.00( 50.0%)  2.00( 50.0%) 
 MO    86 (   59) HAS LZ(WEIGHT)= 0.00(100.0%) 
 MO    87 (   60) HAS LZ(WEIGHT)=-2.00( 50.0%)  2.00( 50.0%) 
 MO    88 (   60) HAS LZ(WEIGHT)=-2.00( 50.0%)  2.00( 50.0%) 
 MO    89 (   61) HAS LZ(WEIGHT)=-1.00( 50.0%)  1.00( 50.0%) 
 MO    90 (   61) HAS LZ(WEIGHT)=-1.00( 50.0%)  1.00( 50.0%) 
 MO    91 (   62) HAS LZ(WEIGHT)=-1.00( 50.0%)  1.00( 50.0%) 
 MO    92 (   62) HAS LZ(WEIGHT)=-1.00( 50.0%)  1.00( 50.0%) 
 MO    93 (   63) HAS LZ(WEIGHT)=-1.00( 50.0%)  1.00( 50.0%) 
 MO    94 (   63) HAS LZ(WEIGHT)=-1.00( 50.0%)  1.00( 50.0%) 
 MO    95 (   64) HAS LZ(WEIGHT)= 0.00(100.0%) 
 MO    96 (   65) HAS LZ(WEIGHT)=-1.00( 50.0%)  1.00( 50.0%) 
 MO    97 (   65) HAS LZ(WEIGHT)=-1.00( 50.0%)  1.00( 50.0%) 
 MO    98 (   66) HAS LZ(WEIGHT)= 0.00(100.0%) 
 MO    99 (   67) HAS LZ(WEIGHT)= 0.00(100.0%) 
 MO   100 (   68) HAS LZ(WEIGHT)= 0.00(100.0%) 
 MO   101 (   69) HAS LZ(WEIGHT)= 0.00(100.0%) 
 MO   102 (   70) HAS LZ(WEIGHT)= 0.00(100.0%) 
 MO   103 (   71) HAS LZ(WEIGHT)= 0.00(100.0%) 
 MO   104 (   72) HAS LZ(WEIGHT)= 0.00(100.0%) 

          ------------
          EIGENVECTORS
          ------------

                      1          2          3          4          5
                   -0.4906    -0.4503    -1.1962    -1.1962    -1.0425
                     A          A          A          A          A   
    1  BE 1  S    0.784345   0.000000   0.000000   0.000000   1.183467
    2  BE 1  X    0.000000   0.000000  -0.768192   0.128649   0.000000
    3  BE 1  Y    0.000000   0.000000  -0.128649  -0.768192   0.000000
    4  BE 1  Z   -0.000000  -0.746850   0.000000   0.000000   0.000000
    5  BE 1  S   -0.036951   0.000000   0.000000   0.000000   0.293238
    6  BE 1  S   -0.107696  -0.000000   0.000000   0.000000   0.780376
    7  BE 1  S   -0.023131   0.000000   0.000000   0.000000  -0.069342
    8  BE 1  X    0.000000   0.000000  -0.092778   0.015538   0.000000
    9  BE 1  Y    0.000000   0.000000  -0.015538  -0.092778   0.000000
   10  BE 1  Z    0.000000  -0.000477   0.000000   0.000000   0.000000
   11  BE 1  X    0.000000   0.000000  -1.191747   0.199582   0.000000
   12  BE 1  Y    0.000000   0.000000  -0.199582  -1.191747   0.000000
   13  BE 1  Z    0.000000  -0.106317  -0.000000   0.000000   0.000000
   14  BE 1  X    0.000000   0.000000   2.153963  -0.360725   0.000000
   15  BE 1  Y    0.000000   0.000000   0.360725   2.153963   0.000000
   16  BE 1  Z   -0.000000   0.951567   0.000000  -0.000000  -0.000000
   17  BE 1 XX   -0.026534   0.000000   0.000000   0.000000   0.078432
   18  BE 1 YY   -0.026534   0.000000   0.000000   0.000000   0.078432
   19  BE 1 ZZ    0.081201   0.000000   0.000000   0.000000  -0.077448
   20  BE 1 XY    0.000000   0.000000   0.000000   0.000000   0.000000
   21  BE 1 XZ    0.000000   0.000000   0.000000   0.000000   0.000000
   22  BE 1 YZ    0.000000   0.000000   0.000000   0.000000   0.000000
   23  BE 1 XX   -0.040537   0.000000   0.000000   0.000000   0.084397
   24  BE 1 YY   -0.040537   0.000000   0.000000   0.000000   0.084397
   25  BE 1 ZZ   -0.069532   0.000000   0.000000   0.000000   0.120465
   26  BE 1 XY    0.000000   0.000000   0.000000   0.000000   0.000000
   27  BE 1 XZ    0.000000   0.000000   0.000000   0.000000   0.000000
   28  BE 1 YZ    0.000000   0.000000   0.000000   0.000000   0.000000
   29  BE 1 XX   -0.024387   0.000000   0.000000   0.000000  -0.195809
   30  BE 1 YY   -0.024387   0.000000   0.000000   0.000000  -0.195809
   31  BE 1 ZZ    0.022252   0.000000   0.000000   0.000000  -0.021055
   32  BE 1 XY    0.000000   0.000000   0.000000   0.000000   0.000000
   33  BE 1 XZ    0.000000   0.000000   0.000000   0.000000   0.000000
   34  BE 1 YZ    0.000000   0.000000   0.000000   0.000000   0.000000
   35  BE 1 XXX   0.000000   0.000000   0.079470  -0.013309   0.000000
   36  BE 1 YYY   0.000000   0.000000   0.013309   0.079470   0.000000
   37  BE 1 ZZZ   0.000000  -0.046881  -0.000000   0.000000   0.000000
   38  BE 1 XXY   0.000000   0.000000   0.005952   0.035540   0.000000
   39  BE 1 XXZ  -0.000000   0.004988   0.000000   0.000000  -0.000000
   40  BE 1 YYX   0.000000   0.000000   0.035540  -0.005952   0.000000
   41  BE 1 YYZ  -0.000000   0.004988   0.000000   0.000000  -0.000000
   42  BE 1 ZZX   0.000000   0.000000  -0.025512   0.004272   0.000000
   43  BE 1 ZZY   0.000000   0.000000  -0.004272  -0.025512   0.000000
   44  BE 1 XYZ   0.000000   0.000000   0.000000   0.000000   0.000000
   45  BE 1 XXX   0.000000   0.000000  -0.857902   0.143673   0.000000
   46  BE 1 YYY   0.000000   0.000000  -0.143673  -0.857902   0.000000
   47  BE 1 ZZZ   0.000000  -0.161185  -0.000000   0.000000   0.000000
   48  BE 1 XXY   0.000000   0.000000  -0.064253  -0.383665   0.000000
   49  BE 1 XXZ   0.000000  -0.106594  -0.000000   0.000000   0.000000
   50  BE 1 YYX   0.000000   0.000000  -0.383665   0.064253   0.000000
   51  BE 1 YYZ   0.000000  -0.106594  -0.000000   0.000000   0.000000
   52  BE 1 ZZX   0.000000   0.000000  -0.393694   0.065932   0.000000
   53  BE 1 ZZY   0.000000   0.000000  -0.065932  -0.393694   0.000000
   54  BE 1 XYZ   0.000000   0.000000   0.000000   0.000000   0.000000
   55  H  2  S    0.519864  -0.587431   0.000000   0.000000  -0.685805
   56  H  2  S   -0.007321   0.088774   0.000000   0.000000  -0.006585
   57  H  2  S   -0.111956  -0.146068  -0.000000  -0.000000  -0.490289
   58  H  2  S   -0.086658   0.091184  -0.000000  -0.000000  -0.120646
   59  H  2  X    0.000000   0.000000  -0.005726   0.000959   0.000000
   60  H  2  Y    0.000000   0.000000  -0.000959  -0.005726   0.000000
   61  H  2  Z    0.001140   0.043241   0.000000   0.000000   0.096776
   62  H  2  X    0.000000   0.000000  -0.027955   0.004682   0.000000
   63  H  2  Y    0.000000   0.000000  -0.004682  -0.027955   0.000000
   64  H  2  Z    0.013179  -0.003632  -0.000000   0.000000  -0.011832
   65  H  2  X    0.000000   0.000000  -0.008809   0.001475   0.000000
   66  H  2  Y    0.000000   0.000000  -0.001475  -0.008809   0.000000
   67  H  2  Z   -0.004654   0.005394   0.000000   0.000000  -0.001355
   68  H  2 XX    0.019292  -0.021484   0.000000   0.000000  -0.001478
   69  H  2 YY    0.019292  -0.021484   0.000000   0.000000  -0.001478
   70  H  2 ZZ   -0.000063  -0.015072   0.000000   0.000000   0.017909
   71  H  2 XY    0.000000   0.000000   0.000000   0.000000   0.000000
   72  H  2 XZ    0.000000   0.000000  -0.001330   0.000223   0.000000
   73  H  2 YZ    0.000000   0.000000  -0.000223  -0.001330   0.000000
   74  H  2 XX    0.001676  -0.001383   0.000000   0.000000  -0.001480
   75  H  2 YY    0.001676  -0.001383   0.000000   0.000000  -0.001480
   76  H  2 ZZ    0.002238  -0.003978   0.000000   0.000000  -0.003802
   77  H  2 XY    0.000000   0.000000   0.000000   0.000000   0.000000
   78  H  2 XZ    0.000000   0.000000   0.005029  -0.000842   0.000000
   79  H  2 YZ    0.000000   0.000000   0.000842   0.005029   0.000000
   80  H  3  S    0.519864   0.587431   0.000000   0.000000  -0.685805
   81  H  3  S   -0.007321  -0.088774   0.000000  -0.000000  -0.006585
   82  H  3  S   -0.111956   0.146068   0.000000   0.000000  -0.490289
   83  H  3  S   -0.086658  -0.091184   0.000000   0.000000  -0.120646
   84  H  3  X    0.000000   0.000000  -0.005726   0.000959   0.000000
   85  H  3  Y    0.000000   0.000000  -0.000959  -0.005726   0.000000
   86  H  3  Z   -0.001140   0.043241   0.000000   0.000000  -0.096776
   87  H  3  X    0.000000   0.000000  -0.027955   0.004682   0.000000
   88  H  3  Y    0.000000   0.000000  -0.004682  -0.027955   0.000000
   89  H  3  Z   -0.013179  -0.003632  -0.000000   0.000000   0.011832
   90  H  3  X    0.000000   0.000000  -0.008809   0.001475   0.000000
   91  H  3  Y    0.000000   0.000000  -0.001475  -0.008809   0.000000
   92  H  3  Z    0.004654   0.005394   0.000000   0.000000   0.001355
   93  H  3 XX    0.019292   0.021484   0.000000   0.000000  -0.001478
   94  H  3 YY    0.019292   0.021484   0.000000   0.000000  -0.001478
   95  H  3 ZZ   -0.000063   0.015072   0.000000   0.000000   0.017909
   96  H  3 XY    0.000000   0.000000   0.000000   0.000000   0.000000
   97  H  3 XZ    0.000000   0.000000   0.001330  -0.000223   0.000000
   98  H  3 YZ    0.000000   0.000000   0.000223   0.001330   0.000000
   99  H  3 XX    0.001676   0.001383   0.000000   0.000000  -0.001480
  100  H  3 YY    0.001676   0.001383   0.000000   0.000000  -0.001480
  101  H  3 ZZ    0.002238   0.003978   0.000000   0.000000  -0.003802
  102  H  3 XY    0.000000   0.000000   0.000000   0.000000   0.000000
  103  H  3 XZ    0.000000   0.000000  -0.005029   0.000842   0.000000
  104  H  3 YZ    0.000000   0.000000  -0.000842  -0.005029   0.000000

                      6          7          8          9         10
                   -0.8675    -0.8001    -0.8001    -0.7786    -0.6844
                     A          A          A          A          A   
    1  BE 1  S    0.000000   0.000000   0.000000  -1.074199   0.000000
    2  BE 1  X   -0.000000   0.000000   0.000000   0.000000   0.000000
    3  BE 1  Y    0.000000   0.000000   0.000000   0.000000   0.000000
    4  BE 1  Z   -1.795064   0.000000   0.000000  -0.000000   0.000000
    5  BE 1  S    0.000000   0.000000   0.000000  -0.879839   0.000000
    6  BE 1  S   -0.000000   0.000000   0.000000   3.900214   0.000000
    7  BE 1  S    0.000000   0.000000   0.000000  -0.012923   0.000000
    8  BE 1  X    0.000000   0.000000   0.000000   0.000000   0.000000
    9  BE 1  Y    0.000000   0.000000   0.000000   0.000000   0.000000
   10  BE 1  Z   -0.026220   0.000000   0.000000  -0.000000   0.000000
   11  BE 1  X    0.000000   0.000000   0.000000   0.000000   0.000000
   12  BE 1  Y   -0.000000   0.000000   0.000000   0.000000   0.000000
   13  BE 1  Z   -0.953977   0.000000   0.000000  -0.000000   0.000000
   14  BE 1  X    0.000000   0.000000   0.000000   0.000000   0.000000
   15  BE 1  Y   -0.000000   0.000000   0.000000   0.000000   0.000000
   16  BE 1  Z    2.648290   0.000000   0.000000  -0.000000   0.000000
   17  BE 1 XX    0.000000   0.000000   0.000000  -0.021888   0.006081
   18  BE 1 YY    0.000000   0.000000   0.000000  -0.021888  -0.006081
   19  BE 1 ZZ    0.000000   0.000000   0.000000  -0.255667   0.000000
   20  BE 1 XY    0.000000   0.000000   0.000000   0.000000   0.138387
   21  BE 1 XZ    0.000000   0.142202  -0.070064   0.000000   0.000000
   22  BE 1 YZ    0.000000   0.070064   0.142202   0.000000   0.000000
   23  BE 1 XX    0.000000   0.000000   0.000000  -0.262754   0.021025
   24  BE 1 YY    0.000000   0.000000   0.000000  -0.262754  -0.021025
   25  BE 1 ZZ    0.000000   0.000000   0.000000  -0.231609   0.000000
   26  BE 1 XY    0.000000   0.000000   0.000000   0.000000   0.478476
   27  BE 1 XZ    0.000000   0.351749  -0.173308   0.000000   0.000000
   28  BE 1 YZ    0.000000   0.173308   0.351749   0.000000   0.000000
   29  BE 1 XX    0.000000   0.000000   0.000000  -0.578321   0.020158
   30  BE 1 YY    0.000000   0.000000   0.000000  -0.578321  -0.020158
   31  BE 1 ZZ    0.000000   0.000000   0.000000  -0.485630   0.000000
   32  BE 1 XY    0.000000   0.000000   0.000000   0.000000   0.458742
   33  BE 1 XZ    0.000000   0.086427  -0.042583   0.000000   0.000000
   34  BE 1 YZ    0.000000   0.042583   0.086427   0.000000   0.000000
   35  BE 1 XXX  -0.000000   0.000000   0.000000   0.000000   0.000000
   36  BE 1 YYY   0.000000   0.000000   0.000000   0.000000   0.000000
   37  BE 1 ZZZ  -0.000175   0.000000   0.000000  -0.000000   0.000000
   38  BE 1 XXY   0.000000   0.000000   0.000000   0.000000   0.000000
   39  BE 1 XXZ   0.072438   0.000000   0.000000   0.000000   0.000000
   40  BE 1 YYX   0.000000   0.000000   0.000000   0.000000   0.000000
   41  BE 1 YYZ   0.072438   0.000000   0.000000   0.000000   0.000000
   42  BE 1 ZZX   0.000000   0.000000   0.000000   0.000000   0.000000
   43  BE 1 ZZY   0.000000   0.000000   0.000000   0.000000   0.000000
   44  BE 1 XYZ   0.000000   0.000000   0.000000   0.000000   0.000000
   45  BE 1 XXX   0.000000   0.000000   0.000000   0.000000   0.000000
   46  BE 1 YYY  -0.000000   0.000000   0.000000   0.000000   0.000000
   47  BE 1 ZZZ  -0.513696   0.000000   0.000000  -0.000000   0.000000
   48  BE 1 XXY   0.000000   0.000000   0.000000   0.000000   0.000000
   49  BE 1 XXZ  -0.322946   0.000000   0.000000  -0.000000   0.000000
   50  BE 1 YYX  -0.000000   0.000000   0.000000   0.000000   0.000000
   51  BE 1 YYZ  -0.322946   0.000000   0.000000  -0.000000   0.000000
   52  BE 1 ZZX   0.000000   0.000000   0.000000   0.000000   0.000000
   53  BE 1 ZZY   0.000000   0.000000   0.000000   0.000000   0.000000
   54  BE 1 XYZ   0.000000   0.000000   0.000000   0.000000   0.000000
   55  H  2  S    0.224178   0.000000   0.000000  -0.330799   0.000000
   56  H  2  S    0.239121   0.000000   0.000000   0.017780   0.000000
   57  H  2  S    0.102970   0.000000   0.000000   0.114758   0.000000
   58  H  2  S    0.298087   0.000000   0.000000  -0.005686   0.000000
   59  H  2  X    0.000000   0.209818  -0.103378   0.000000   0.000000
   60  H  2  Y    0.000000   0.103378   0.209818   0.000000   0.000000
   61  H  2  Z    0.054398   0.000000   0.000000   0.063172   0.000000
   62  H  2  X    0.000000   0.123942  -0.061067   0.000000   0.000000
   63  H  2  Y    0.000000   0.061067   0.123942   0.000000   0.000000
   64  H  2  Z    0.026602   0.000000   0.000000   0.065911   0.000000
   65  H  2  X    0.000000   0.015710  -0.007740   0.000000   0.000000
   66  H  2  Y    0.000000   0.007740   0.015710   0.000000   0.000000
   67  H  2  Z    0.022212   0.000000   0.000000   0.017109   0.000000
   68  H  2 XX   -0.016969   0.000000   0.000000   0.016080   0.002229
   69  H  2 YY   -0.016969   0.000000   0.000000   0.016080  -0.002229
   70  H  2 ZZ   -0.012086   0.000000   0.000000   0.022924   0.000000
   71  H  2 XY    0.000000   0.000000   0.000000   0.000000   0.050736
   72  H  2 XZ    0.000000  -0.000545   0.000269   0.000000   0.000000
   73  H  2 YZ    0.000000  -0.000269  -0.000545   0.000000   0.000000
   74  H  2 XX    0.000649   0.000000   0.000000   0.002124   0.000095
   75  H  2 YY    0.000649   0.000000   0.000000   0.002124  -0.000095
   76  H  2 ZZ   -0.009714   0.000000   0.000000  -0.005713   0.000000
   77  H  2 XY    0.000000   0.000000   0.000000   0.000000   0.002172
   78  H  2 XZ    0.000000  -0.007129   0.003513   0.000000   0.000000
   79  H  2 YZ    0.000000  -0.003513  -0.007129   0.000000   0.000000
   80  H  3  S   -0.224178   0.000000   0.000000  -0.330799   0.000000
   81  H  3  S   -0.239121   0.000000   0.000000   0.017780   0.000000
   82  H  3  S   -0.102970   0.000000   0.000000   0.114758   0.000000
   83  H  3  S   -0.298087   0.000000   0.000000  -0.005686   0.000000
   84  H  3  X    0.000000  -0.209818   0.103378   0.000000   0.000000
   85  H  3  Y    0.000000  -0.103378  -0.209818   0.000000   0.000000
   86  H  3  Z    0.054398   0.000000   0.000000  -0.063172   0.000000
   87  H  3  X    0.000000  -0.123942   0.061067   0.000000   0.000000
   88  H  3  Y    0.000000  -0.061067  -0.123942   0.000000   0.000000
   89  H  3  Z    0.026602   0.000000   0.000000  -0.065911   0.000000
   90  H  3  X    0.000000  -0.015710   0.007740   0.000000   0.000000
   91  H  3  Y    0.000000  -0.007740  -0.015710   0.000000   0.000000
   92  H  3  Z    0.022212   0.000000   0.000000  -0.017109   0.000000
   93  H  3 XX    0.016969   0.000000   0.000000   0.016080   0.002229
   94  H  3 YY    0.016969   0.000000   0.000000   0.016080  -0.002229
   95  H  3 ZZ    0.012086   0.000000   0.000000   0.022924   0.000000
   96  H  3 XY    0.000000   0.000000   0.000000   0.000000   0.050736
   97  H  3 XZ    0.000000  -0.000545   0.000269   0.000000   0.000000
   98  H  3 YZ    0.000000  -0.000269  -0.000545   0.000000   0.000000
   99  H  3 XX   -0.000649   0.000000   0.000000   0.002124   0.000095
  100  H  3 YY   -0.000649   0.000000   0.000000   0.002124  -0.000095
  101  H  3 ZZ    0.009714   0.000000   0.000000  -0.005713   0.000000
  102  H  3 XY    0.000000   0.000000   0.000000   0.000000   0.002172
  103  H  3 XZ    0.000000  -0.007129   0.003513   0.000000   0.000000
  104  H  3 YZ    0.000000  -0.003513  -0.007129   0.000000   0.000000

                     11         12         13         14         15
                   -0.6844    -0.6591    -0.6591    -0.6452    -0.5213
                     A          A          A          A          A   
    1  BE 1  S    0.000000   0.000000   0.000000   0.000000   0.000000
    2  BE 1  X    0.000000  -0.265121   0.036586  -0.000000   0.672283
    3  BE 1  Y    0.000000  -0.036586  -0.265121   0.000000  -0.120397
    4  BE 1  Z    0.000000   0.000000   0.000000   0.468819   0.000000
    5  BE 1  S    0.000000   0.000000   0.000000  -0.000000   0.000000
    6  BE 1  S    0.000000   0.000000   0.000000   0.000000   0.000000
    7  BE 1  S    0.000000   0.000000   0.000000  -0.000000   0.000000
    8  BE 1  X    0.000000  -0.129404   0.017858   0.000000  -0.093619
    9  BE 1  Y    0.000000  -0.017858  -0.129404   0.000000   0.016766
   10  BE 1  Z    0.000000   0.000000   0.000000  -0.021776   0.000000
   11  BE 1  X    0.000000  -2.113691   0.291688  -0.000000  -1.396358
   12  BE 1  Y    0.000000  -0.291688  -2.113691  -0.000000   0.250070
   13  BE 1  Z    0.000000  -0.000000   0.000000  -1.141464  -0.000000
   14  BE 1  X    0.000000   4.569756  -0.630622   0.000000   4.137051
   15  BE 1  Y    0.000000   0.630622   4.569756   0.000000  -0.740893
   16  BE 1  Z    0.000000   0.000000   0.000000   3.575490   0.000000
   17  BE 1 XX    0.119847   0.000000   0.000000   0.000000   0.000000
   18  BE 1 YY   -0.119847   0.000000   0.000000   0.000000   0.000000
   19  BE 1 ZZ    0.000000   0.000000   0.000000   0.000000   0.000000
   20  BE 1 XY   -0.007022   0.000000   0.000000   0.000000   0.000000
   21  BE 1 XZ    0.000000   0.000000   0.000000   0.000000   0.000000
   22  BE 1 YZ    0.000000   0.000000   0.000000   0.000000   0.000000
   23  BE 1 XX    0.414372   0.000000   0.000000  -0.000000   0.000000
   24  BE 1 YY   -0.414372   0.000000   0.000000  -0.000000   0.000000
   25  BE 1 ZZ    0.000000   0.000000   0.000000  -0.000000   0.000000
   26  BE 1 XY   -0.024278   0.000000   0.000000   0.000000   0.000000
   27  BE 1 XZ    0.000000   0.000000   0.000000   0.000000   0.000000
   28  BE 1 YZ    0.000000   0.000000   0.000000   0.000000   0.000000
   29  BE 1 XX    0.397282   0.000000   0.000000  -0.000000   0.000000
   30  BE 1 YY   -0.397282   0.000000   0.000000  -0.000000   0.000000
   31  BE 1 ZZ    0.000000   0.000000   0.000000  -0.000000   0.000000
   32  BE 1 XY   -0.023277   0.000000   0.000000   0.000000   0.000000
   33  BE 1 XZ    0.000000   0.000000   0.000000   0.000000   0.000000
   34  BE 1 YZ    0.000000   0.000000   0.000000   0.000000   0.000000
   35  BE 1 XXX   0.000000   0.051006  -0.007039   0.000000  -0.012616
   36  BE 1 YYY   0.000000   0.007039   0.051006   0.000000   0.002259
   37  BE 1 ZZZ   0.000000  -0.000000   0.000000  -0.235617  -0.000000
   38  BE 1 XXY   0.000000   0.003148   0.022810   0.000000   0.001010
   39  BE 1 XXZ   0.000000   0.000000   0.000000   0.022061   0.000000
   40  BE 1 YYX   0.000000   0.022810  -0.003148   0.000000  -0.005642
   41  BE 1 YYZ   0.000000   0.000000   0.000000   0.022061   0.000000
   42  BE 1 ZZX   0.000000   0.007769  -0.001072   0.000000  -0.108462
   43  BE 1 ZZY   0.000000   0.001072   0.007769   0.000000   0.019424
   44  BE 1 XYZ   0.000000   0.000000   0.000000   0.000000   0.000000
   45  BE 1 XXX   0.000000  -1.761206   0.243045  -0.000000  -1.146287
   46  BE 1 YYY   0.000000  -0.243045  -1.761206  -0.000000   0.205285
   47  BE 1 ZZZ   0.000000  -0.000000   0.000000  -1.330965  -0.000000
   48  BE 1 XXY   0.000000  -0.108693  -0.787635  -0.000000   0.091806
   49  BE 1 XXZ   0.000000  -0.000000   0.000000  -0.553575  -0.000000
   50  BE 1 YYX   0.000000  -0.787635   0.108693   0.000000  -0.512635
   51  BE 1 YYZ   0.000000  -0.000000   0.000000  -0.553575  -0.000000
   52  BE 1 ZZX   0.000000  -0.659417   0.090999  -0.000000  -0.717896
   53  BE 1 ZZY   0.000000  -0.090999  -0.659417  -0.000000   0.128566
   54  BE 1 XYZ   0.000000   0.000000   0.000000   0.000000   0.000000
   55  H  2  S    0.000000   0.000000   0.000000  -0.811590   0.000000
   56  H  2  S    0.000000  -0.000000   0.000000   0.145402  -0.000000
   57  H  2  S    0.000000   0.000000  -0.000000   0.543001  -0.000000
   58  H  2  S    0.000000   0.000000  -0.000000  -0.168394   0.000000
   59  H  2  X    0.000000   0.234127  -0.032309   0.000000  -0.983332
   60  H  2  Y    0.000000   0.032309   0.234127   0.000000   0.176102
   61  H  2  Z    0.000000  -0.000000   0.000000  -0.309406   0.000000
   62  H  2  X    0.000000   0.068533  -0.009457   0.000000  -0.168957
   63  H  2  Y    0.000000   0.009457   0.068533   0.000000   0.030258
   64  H  2  Z    0.000000   0.000000   0.000000  -0.062684   0.000000
   65  H  2  X    0.000000   0.004955  -0.000684   0.000000  -0.013468
   66  H  2  Y    0.000000   0.000684   0.004955   0.000000   0.002412
   67  H  2  Z    0.000000   0.000000   0.000000   0.005421   0.000000
   68  H  2 XX    0.043939  -0.000000   0.000000  -0.025058   0.000000
   69  H  2 YY   -0.043939  -0.000000   0.000000  -0.025058   0.000000
   70  H  2 ZZ    0.000000  -0.000000  -0.000000   0.013800   0.000000
   71  H  2 XY   -0.002574   0.000000   0.000000   0.000000   0.000000
   72  H  2 XZ    0.000000  -0.003200   0.000442   0.000000   0.002213
   73  H  2 YZ    0.000000  -0.000442  -0.003200   0.000000  -0.000396
   74  H  2 XX    0.001881   0.000000   0.000000  -0.003572   0.000000
   75  H  2 YY   -0.001881   0.000000   0.000000  -0.003572   0.000000
   76  H  2 ZZ    0.000000   0.000000   0.000000  -0.013237   0.000000
   77  H  2 XY   -0.000110   0.000000   0.000000   0.000000   0.000000
   78  H  2 XZ    0.000000   0.002082  -0.000287   0.000000   0.000737
   79  H  2 YZ    0.000000   0.000287   0.002082   0.000000  -0.000132
   80  H  3  S    0.000000   0.000000   0.000000   0.811590   0.000000
   81  H  3  S    0.000000   0.000000  -0.000000  -0.145402   0.000000
   82  H  3  S    0.000000  -0.000000   0.000000  -0.543001   0.000000
   83  H  3  S    0.000000   0.000000   0.000000   0.168394   0.000000
   84  H  3  X    0.000000   0.234127  -0.032309   0.000000  -0.983332
   85  H  3  Y    0.000000   0.032309   0.234127   0.000000   0.176102
   86  H  3  Z    0.000000  -0.000000   0.000000  -0.309406   0.000000
   87  H  3  X    0.000000   0.068533  -0.009457   0.000000  -0.168957
   88  H  3  Y    0.000000   0.009457   0.068533   0.000000   0.030258
   89  H  3  Z    0.000000   0.000000   0.000000  -0.062684   0.000000
   90  H  3  X    0.000000   0.004955  -0.000684   0.000000  -0.013468
   91  H  3  Y    0.000000   0.000684   0.004955   0.000000   0.002412
   92  H  3  Z    0.000000   0.000000   0.000000   0.005421   0.000000
   93  H  3 XX    0.043939   0.000000   0.000000   0.025058   0.000000
   94  H  3 YY   -0.043939   0.000000   0.000000   0.025058   0.000000
   95  H  3 ZZ    0.000000   0.000000   0.000000  -0.013800   0.000000
   96  H  3 XY   -0.002574   0.000000   0.000000   0.000000   0.000000
   97  H  3 XZ    0.000000   0.003200  -0.000442   0.000000  -0.002213
   98  H  3 YZ    0.000000   0.000442   0.003200   0.000000   0.000396
   99  H  3 XX    0.001881   0.000000   0.000000   0.003572   0.000000
  100  H  3 YY   -0.001881   0.000000   0.000000   0.003572   0.000000
  101  H  3 ZZ    0.000000   0.000000   0.000000   0.013237   0.000000
  102  H  3 XY   -0.000110   0.000000   0.000000   0.000000   0.000000
  103  H  3 XZ    0.000000  -0.002082   0.000287   0.000000  -0.000737
  104  H  3 YZ    0.000000  -0.000287  -0.002082   0.000000   0.000132

                     16         17         18         19         20
                   -0.5213    -0.5198    -0.4569    -0.4401    -0.4401
                     A          A          A          A          A   
    1  BE 1  S    0.000000   0.730306   0.000000   0.000000   0.000000
    2  BE 1  X    0.120397   0.000000  -0.000000   0.000000   0.000000
    3  BE 1  Y    0.672283   0.000000   0.000000   0.000000   0.000000
    4  BE 1  Z    0.000000   0.000000  -0.834756   0.000000   0.000000
    5  BE 1  S    0.000000  -0.118811   0.000000   0.000000   0.000000
    6  BE 1  S    0.000000   3.905937  -0.000000   0.000000   0.000000
    7  BE 1  S    0.000000  -1.483482   0.000000   0.000000   0.000000
    8  BE 1  X   -0.016766   0.000000   0.000000   0.000000   0.000000
    9  BE 1  Y   -0.093619   0.000000   0.000000   0.000000   0.000000
   10  BE 1  Z    0.000000   0.000000  -0.044048   0.000000   0.000000
   11  BE 1  X   -0.250070   0.000000   0.000000   0.000000   0.000000
   12  BE 1  Y   -1.396358   0.000000  -0.000000   0.000000   0.000000
   13  BE 1  Z    0.000000   0.000000  -2.975567   0.000000   0.000000
   14  BE 1  X    0.740893   0.000000  -0.000000   0.000000   0.000000
   15  BE 1  Y    4.137051   0.000000  -0.000000   0.000000   0.000000
   16  BE 1  Z    0.000000   0.000000  16.529731   0.000000   0.000000
   17  BE 1 XX    0.000000   0.032650   0.000000   0.000000   0.000000
   18  BE 1 YY    0.000000   0.032650   0.000000   0.000000   0.000000
   19  BE 1 ZZ    0.000000  -0.088070   0.000000   0.000000   0.000000
   20  BE 1 XY    0.000000   0.000000   0.000000   0.000000   0.000000
   21  BE 1 XZ    0.000000   0.000000   0.000000   0.000000   0.000000
   22  BE 1 YZ    0.000000   0.000000   0.000000   0.000000   0.000000
   23  BE 1 XX    0.000000  -0.272380   0.000000   0.000000   0.000000
   24  BE 1 YY    0.000000  -0.272380   0.000000   0.000000   0.000000
   25  BE 1 ZZ    0.000000  -0.340951   0.000000   0.000000   0.000000
   26  BE 1 XY    0.000000   0.000000   0.000000   0.000000   0.000000
   27  BE 1 XZ    0.000000   0.000000   0.000000   0.000000   0.000000
   28  BE 1 YZ    0.000000   0.000000   0.000000   0.000000   0.000000
   29  BE 1 XX    0.000000  -1.520301   0.000000   0.000000   0.000000
   30  BE 1 YY    0.000000  -1.520301   0.000000   0.000000   0.000000
   31  BE 1 ZZ    0.000000  -0.227039   0.000000   0.000000   0.000000
   32  BE 1 XY    0.000000   0.000000   0.000000   0.000000   0.000000
   33  BE 1 XZ    0.000000   0.000000   0.000000   0.000000   0.000000
   34  BE 1 YZ    0.000000   0.000000   0.000000   0.000000   0.000000
   35  BE 1 XXX  -0.002259   0.000000   0.000000   0.000000   0.000000
   36  BE 1 YYY  -0.012616   0.000000   0.000000   0.000000   0.000000
   37  BE 1 ZZZ   0.000000   0.000000  -0.265215   0.000000   0.000000
   38  BE 1 XXY  -0.005642   0.000000   0.000000   0.000000   0.000000
   39  BE 1 XXZ   0.000000  -0.000000   0.076027   0.000007  -0.025011
   40  BE 1 YYX  -0.001010   0.000000   0.000000   0.000000   0.000000
   41  BE 1 YYZ   0.000000  -0.000000   0.076027  -0.000007   0.025011
   42  BE 1 ZZX  -0.019424   0.000000   0.000000   0.000000   0.000000
   43  BE 1 ZZY  -0.108462   0.000000   0.000000   0.000000   0.000000
   44  BE 1 XYZ   0.000000   0.000000   0.000000   0.028880   0.000008
   45  BE 1 XXX  -0.205285   0.000000   0.000000   0.000000   0.000000
   46  BE 1 YYY  -1.146287   0.000000   0.000000   0.000000   0.000000
   47  BE 1 ZZZ   0.000000  -0.000000  -2.046976   0.000000   0.000000
   48  BE 1 XXY  -0.512635   0.000000   0.000000   0.000000   0.000000
   49  BE 1 XXZ   0.000000  -0.000000  -1.668733   0.000237  -0.810083
   50  BE 1 YYX  -0.091806   0.000000   0.000000   0.000000   0.000000
   51  BE 1 YYZ   0.000000  -0.000000  -1.668733  -0.000237   0.810083
   52  BE 1 ZZX  -0.128566   0.000000   0.000000   0.000000   0.000000
   53  BE 1 ZZY  -0.717896   0.000000   0.000000   0.000000   0.000000
   54  BE 1 XYZ   0.000000   0.000000   0.000000   0.935403   0.000273
   55  H  2  S    0.000000  -0.396085  -0.009730   0.000000   0.000000
   56  H  2  S    0.000000   1.110874  -0.664721   0.000000   0.000000
   57  H  2  S   -0.000000  -0.947439  -7.567468   0.000000   0.000000
   58  H  2  S   -0.000000  -0.110393  -0.112740   0.000000   0.000000
   59  H  2  X   -0.176102   0.000000   0.000000   0.000000   0.000000
   60  H  2  Y   -0.983332   0.000000   0.000000   0.000000   0.000000
   61  H  2  Z    0.000000   0.565288   0.685596   0.000000   0.000000
   62  H  2  X   -0.030258   0.000000   0.000000   0.000000   0.000000
   63  H  2  Y   -0.168957   0.000000   0.000000   0.000000   0.000000
   64  H  2  Z    0.000000   0.069482  -0.195313   0.000000   0.000000
   65  H  2  X   -0.002412   0.000000   0.000000   0.000000   0.000000
   66  H  2  Y   -0.013468   0.000000   0.000000   0.000000   0.000000
   67  H  2  Z    0.000000   0.007021   0.007397   0.000000   0.000000
   68  H  2 XX    0.000000   0.009972  -0.213297   0.000010  -0.033563
   69  H  2 YY    0.000000   0.009972  -0.213297  -0.000010   0.033563
   70  H  2 ZZ    0.000000   0.012352  -0.116556   0.000000   0.000000
   71  H  2 XY    0.000000   0.000000   0.000000   0.038755   0.000011
   72  H  2 XZ    0.000396   0.000000   0.000000   0.000000   0.000000
   73  H  2 YZ    0.002213   0.000000   0.000000   0.000000   0.000000
   74  H  2 XX    0.000000  -0.002870  -0.012297   0.000003  -0.009530
   75  H  2 YY    0.000000  -0.002870  -0.012297  -0.000003   0.009530
   76  H  2 ZZ    0.000000  -0.004714  -0.022123   0.000000   0.000000
   77  H  2 XY    0.000000   0.000000   0.000000   0.011004   0.000003
   78  H  2 XZ    0.000132   0.000000   0.000000   0.000000   0.000000
   79  H  2 YZ    0.000737   0.000000   0.000000   0.000000   0.000000
   80  H  3  S    0.000000  -0.396085   0.009730   0.000000   0.000000
   81  H  3  S    0.000000   1.110874   0.664721   0.000000   0.000000
   82  H  3  S    0.000000  -0.947439   7.567468   0.000000   0.000000
   83  H  3  S    0.000000  -0.110393   0.112740   0.000000   0.000000
   84  H  3  X   -0.176102   0.000000   0.000000   0.000000   0.000000
   85  H  3  Y   -0.983332   0.000000   0.000000   0.000000   0.000000
   86  H  3  Z    0.000000  -0.565288   0.685596   0.000000   0.000000
   87  H  3  X   -0.030258   0.000000   0.000000   0.000000   0.000000
   88  H  3  Y   -0.168957   0.000000   0.000000   0.000000   0.000000
   89  H  3  Z    0.000000  -0.069482  -0.195313   0.000000   0.000000
   90  H  3  X   -0.002412   0.000000   0.000000   0.000000   0.000000
   91  H  3  Y   -0.013468   0.000000   0.000000   0.000000   0.000000
   92  H  3  Z    0.000000  -0.007021   0.007397   0.000000   0.000000
   93  H  3 XX    0.000000   0.009972   0.213297  -0.000010   0.033563
   94  H  3 YY    0.000000   0.009972   0.213297   0.000010  -0.033563
   95  H  3 ZZ    0.000000   0.012352   0.116556   0.000000   0.000000
   96  H  3 XY    0.000000   0.000000   0.000000  -0.038755  -0.000011
   97  H  3 XZ   -0.000396   0.000000   0.000000   0.000000   0.000000
   98  H  3 YZ   -0.002213   0.000000   0.000000   0.000000   0.000000
   99  H  3 XX    0.000000  -0.002870   0.012297  -0.000003   0.009530
  100  H  3 YY    0.000000  -0.002870   0.012297   0.000003  -0.009530
  101  H  3 ZZ    0.000000  -0.004714   0.022123   0.000000   0.000000
  102  H  3 XY    0.000000   0.000000   0.000000  -0.011004  -0.000003
  103  H  3 XZ   -0.000132   0.000000   0.000000   0.000000   0.000000
  104  H  3 YZ   -0.000737   0.000000   0.000000   0.000000   0.000000

                     21         22         23         24         25
                   -0.4364    -0.4335    -0.4335    -0.3900    -0.3900
                     A          A          A          A          A   
    1  BE 1  S   -0.573512   0.000000   0.000000   0.000000   0.000000
    2  BE 1  X    0.000000   0.000000   0.000000   0.000000   0.000000
    3  BE 1  Y    0.000000   0.000000   0.000000   0.000000   0.000000
    4  BE 1  Z   -0.000000   0.000000   0.000000  -0.000000   0.000000
    5  BE 1  S   -1.360595   0.000000   0.000000   0.000000   0.000000
    6  BE 1  S    4.355558   0.000000   0.000000   0.000000   0.000000
    7  BE 1  S   -1.284382   0.000000   0.000000   0.000000   0.000000
    8  BE 1  X    0.000000   0.000000   0.000000   0.000000   0.000000
    9  BE 1  Y    0.000000   0.000000   0.000000   0.000000   0.000000
   10  BE 1  Z   -0.000000   0.000000   0.000000   0.000000   0.000000
   11  BE 1  X    0.000000   0.000000   0.000000   0.000000   0.000000
   12  BE 1  Y    0.000000   0.000000   0.000000   0.000000   0.000000
   13  BE 1  Z   -0.000000   0.000000   0.000000   0.000000  -0.000000
   14  BE 1  X    0.000000   0.000000   0.000000  -0.000000   0.000000
   15  BE 1  Y    0.000000   0.000000   0.000000   0.000000  -0.000000
   16  BE 1  Z    0.000000   0.000000   0.000000   0.000000  -0.000000
   17  BE 1 XX   -0.088384   0.000000   0.000000   0.000000   0.000000
   18  BE 1 YY   -0.088384   0.000000   0.000000   0.000000   0.000000
   19  BE 1 ZZ   -0.296666   0.000000   0.000000   0.000000   0.000000
   20  BE 1 XY    0.000000   0.000000   0.000000   0.000000   0.000000
   21  BE 1 XZ    0.000000  -0.141173   0.081362   0.000000   0.000000
   22  BE 1 YZ    0.000000  -0.081362  -0.141173   0.000000   0.000000
   23  BE 1 XX   -0.522790   0.000000   0.000000   0.000000   0.000000
   24  BE 1 YY   -0.522790   0.000000   0.000000   0.000000   0.000000
   25  BE 1 ZZ   -0.613293   0.000000   0.000000   0.000000   0.000000
   26  BE 1 XY    0.000000   0.000000   0.000000   0.000000   0.000000
   27  BE 1 XZ    0.000000  -0.571629   0.329446   0.000000   0.000000
   28  BE 1 YZ    0.000000  -0.329446  -0.571629   0.000000   0.000000
   29  BE 1 XX   -0.863332   0.000000   0.000000   0.000000   0.000000
   30  BE 1 YY   -0.863332   0.000000   0.000000   0.000000   0.000000
   31  BE 1 ZZ   -1.424622   0.000000   0.000000   0.000000   0.000000
   32  BE 1 XY    0.000000   0.000000   0.000000   0.000000   0.000000
   33  BE 1 XZ    0.000000   1.474063  -0.849545   0.000000   0.000000
   34  BE 1 YZ    0.000000   0.849545   1.474063   0.000000   0.000000
   35  BE 1 XXX   0.000000   0.000000   0.000000  -0.010844  -0.000699
   36  BE 1 YYY   0.000000   0.000000   0.000000   0.000699  -0.010844
   37  BE 1 ZZZ  -0.000000   0.000000   0.000000   0.000000  -0.000000
   38  BE 1 XXY   0.000000   0.000000   0.000000  -0.000938   0.014549
   39  BE 1 XXZ   0.000000   0.000000   0.000000  -0.000000   0.000000
   40  BE 1 YYX   0.000000   0.000000   0.000000   0.014549   0.000938
   41  BE 1 YYZ   0.000000   0.000000   0.000000  -0.000000   0.000000
   42  BE 1 ZZX   0.000000   0.000000   0.000000   0.000000   0.000000
   43  BE 1 ZZY   0.000000   0.000000   0.000000   0.000000   0.000000
   44  BE 1 XYZ   0.000000   0.000000   0.000000   0.000000   0.000000
   45  BE 1 XXX   0.000000   0.000000   0.000000  -0.782019  -0.050406
   46  BE 1 YYY   0.000000   0.000000   0.000000   0.050406  -0.782019
   47  BE 1 ZZZ  -0.000000   0.000000   0.000000   0.000000   0.000000
   48  BE 1 XXY   0.000000   0.000000   0.000000  -0.067627   1.049188
   49  BE 1 XXZ  -0.000000   0.000000   0.000000  -0.000000   0.000000
   50  BE 1 YYX   0.000000   0.000000   0.000000   1.049188   0.067627
   51  BE 1 YYZ  -0.000000   0.000000   0.000000  -0.000000   0.000000
   52  BE 1 ZZX   0.000000   0.000000   0.000000   0.000000   0.000000
   53  BE 1 ZZY   0.000000   0.000000   0.000000   0.000000   0.000000
   54  BE 1 XYZ   0.000000   0.000000   0.000000   0.000000   0.000000
   55  H  2  S   -0.089579   0.000000   0.000000  -0.000000   0.000000
   56  H  2  S   -0.201462   0.000000   0.000000   0.000000  -0.000000
   57  H  2  S    1.176442   0.000000   0.000000  -0.000000   0.000000
   58  H  2  S    0.026547   0.000000   0.000000  -0.000000   0.000000
   59  H  2  X    0.000000  -0.394287   0.227239   0.000000   0.000000
   60  H  2  Y    0.000000  -0.227239  -0.394287   0.000000   0.000000
   61  H  2  Z   -0.034111   0.000000   0.000000   0.000000  -0.000000
   62  H  2  X    0.000000  -0.062815   0.036202   0.000000   0.000000
   63  H  2  Y    0.000000  -0.036202  -0.062815   0.000000   0.000000
   64  H  2  Z    0.047166   0.000000   0.000000   0.000000  -0.000000
   65  H  2  X    0.000000  -0.014192   0.008179   0.000000   0.000000
   66  H  2  Y    0.000000  -0.008179  -0.014192   0.000000   0.000000
   67  H  2  Z    0.010897   0.000000   0.000000   0.000000   0.000000
   68  H  2 XX   -0.008502   0.000000   0.000000  -0.000000   0.000000
   69  H  2 YY   -0.008502   0.000000   0.000000  -0.000000   0.000000
   70  H  2 ZZ   -0.001025   0.000000   0.000000  -0.000000   0.000000
   71  H  2 XY    0.000000   0.000000   0.000000   0.000000   0.000000
   72  H  2 XZ    0.000000   0.017591  -0.010138   0.000000   0.000000
   73  H  2 YZ    0.000000   0.010138   0.017591   0.000000   0.000000
   74  H  2 XX   -0.001593   0.000000   0.000000   0.000000   0.000000
   75  H  2 YY   -0.001593   0.000000   0.000000   0.000000   0.000000
   76  H  2 ZZ   -0.006631   0.000000   0.000000   0.000000   0.000000
   77  H  2 XY    0.000000   0.000000   0.000000   0.000000   0.000000
   78  H  2 XZ    0.000000   0.008213  -0.004733   0.000000   0.000000
   79  H  2 YZ    0.000000   0.004733   0.008213   0.000000   0.000000
   80  H  3  S   -0.089579   0.000000   0.000000   0.000000  -0.000000
   81  H  3  S   -0.201462   0.000000   0.000000  -0.000000   0.000000
   82  H  3  S    1.176442   0.000000   0.000000   0.000000  -0.000000
   83  H  3  S    0.026547   0.000000   0.000000   0.000000  -0.000000
   84  H  3  X    0.000000   0.394287  -0.227239   0.000000   0.000000
   85  H  3  Y    0.000000   0.227239   0.394287   0.000000   0.000000
   86  H  3  Z    0.034111   0.000000   0.000000   0.000000  -0.000000
   87  H  3  X    0.000000   0.062815  -0.036202   0.000000   0.000000
   88  H  3  Y    0.000000   0.036202   0.062815   0.000000   0.000000
   89  H  3  Z   -0.047166   0.000000   0.000000   0.000000  -0.000000
   90  H  3  X    0.000000   0.014192  -0.008179   0.000000   0.000000
   91  H  3  Y    0.000000   0.008179   0.014192   0.000000   0.000000
   92  H  3  Z   -0.010897   0.000000   0.000000   0.000000   0.000000
   93  H  3 XX   -0.008502   0.000000   0.000000   0.000000  -0.000000
   94  H  3 YY   -0.008502   0.000000   0.000000   0.000000  -0.000000
   95  H  3 ZZ   -0.001025   0.000000   0.000000   0.000000  -0.000000
   96  H  3 XY    0.000000   0.000000   0.000000   0.000000   0.000000
   97  H  3 XZ    0.000000   0.017591  -0.010138   0.000000   0.000000
   98  H  3 YZ    0.000000   0.010138   0.017591   0.000000   0.000000
   99  H  3 XX   -0.001593   0.000000   0.000000   0.000000   0.000000
  100  H  3 YY   -0.001593   0.000000   0.000000   0.000000   0.000000
  101  H  3 ZZ   -0.006631   0.000000   0.000000   0.000000   0.000000
  102  H  3 XY    0.000000   0.000000   0.000000   0.000000   0.000000
  103  H  3 XZ    0.000000   0.008213  -0.004733   0.000000   0.000000
  104  H  3 YZ    0.000000   0.004733   0.008213   0.000000   0.000000

                     26         27         28         29         30
                   -0.3700    -0.3700    -0.3578    -0.3530    -0.3530
                     A          A          A          A          A   
    1  BE 1  S    0.000000   0.000000   0.000000   0.000000   0.000000
    2  BE 1  X    0.000000   0.000000   0.000000   4.697151  -0.576108
    3  BE 1  Y    0.000000   0.000000   0.000000   0.576108   4.697151
    4  BE 1  Z    0.000000   0.000000  -0.185494   0.000000  -0.000000
    5  BE 1  S    0.000000   0.000000  -0.000000   0.000000   0.000000
    6  BE 1  S    0.000000   0.000000  -0.000000   0.000000   0.000000
    7  BE 1  S    0.000000   0.000000   0.000000   0.000000   0.000000
    8  BE 1  X    0.000000   0.000000   0.000000  -0.367870   0.045119
    9  BE 1  Y    0.000000   0.000000   0.000000  -0.045119  -0.367870
   10  BE 1  Z    0.000000   0.000000  -0.040287   0.000000   0.000000
   11  BE 1  X    0.000000   0.000000   0.000000  -5.199323   0.637700
   12  BE 1  Y    0.000000   0.000000   0.000000  -0.637700  -5.199323
   13  BE 1  Z    0.000000   0.000000  -4.327012  -0.000000  -0.000000
   14  BE 1  X    0.000000   0.000000  -0.000000   5.792755  -0.710485
   15  BE 1  Y    0.000000   0.000000  -0.000000   0.710485   5.792755
   16  BE 1  Z    0.000000   0.000000  28.585315   0.000000  -0.000000
   17  BE 1 XX   -0.114043  -0.003490  -0.000000   0.000000   0.000000
   18  BE 1 YY    0.114043   0.003490  -0.000000   0.000000   0.000000
   19  BE 1 ZZ    0.000000   0.000000  -0.000000   0.000000   0.000000
   20  BE 1 XY    0.004030  -0.131686   0.000000   0.000000   0.000000
   21  BE 1 XZ    0.000000   0.000000   0.000000   0.000000   0.000000
   22  BE 1 YZ    0.000000   0.000000   0.000000   0.000000   0.000000
   23  BE 1 XX   -0.913072  -0.027940  -0.000000   0.000000   0.000000
   24  BE 1 YY    0.913072   0.027940  -0.000000   0.000000   0.000000
   25  BE 1 ZZ    0.000000   0.000000  -0.000000   0.000000   0.000000
   26  BE 1 XY    0.032262  -1.054325   0.000000   0.000000   0.000000
   27  BE 1 XZ    0.000000   0.000000   0.000000   0.000000   0.000000
   28  BE 1 YZ    0.000000   0.000000   0.000000   0.000000   0.000000
   29  BE 1 XX    1.112536   0.034043   0.000000   0.000000   0.000000
   30  BE 1 YY   -1.112536  -0.034043   0.000000   0.000000   0.000000
   31  BE 1 ZZ    0.000000   0.000000   0.000000   0.000000   0.000000
   32  BE 1 XY   -0.039310   1.284646   0.000000   0.000000   0.000000
   33  BE 1 XZ    0.000000   0.000000   0.000000   0.000000   0.000000
   34  BE 1 YZ    0.000000   0.000000   0.000000   0.000000   0.000000
   35  BE 1 XXX   0.000000   0.000000   0.000000  -0.322541   0.039560
   36  BE 1 YYY   0.000000   0.000000   0.000000  -0.039560  -0.322541
   37  BE 1 ZZZ   0.000000   0.000000  -0.533573   0.000000  -0.000000
   38  BE 1 XXY   0.000000   0.000000   0.000000  -0.017692  -0.144245
   39  BE 1 XXZ   0.000000   0.000000   0.001675   0.000000   0.000000
   40  BE 1 YYX   0.000000   0.000000   0.000000  -0.144245   0.017692
   41  BE 1 YYZ   0.000000   0.000000   0.001675   0.000000   0.000000
   42  BE 1 ZZX   0.000000   0.000000   0.000000  -0.179677   0.022038
   43  BE 1 ZZY   0.000000   0.000000   0.000000  -0.022038  -0.179677
   44  BE 1 XYZ   0.000000   0.000000   0.000000   0.000000   0.000000
   45  BE 1 XXX   0.000000   0.000000   0.000000  -4.786457   0.587062
   46  BE 1 YYY   0.000000   0.000000   0.000000  -0.587062  -4.786457
   47  BE 1 ZZZ   0.000000   0.000000  -2.679037  -0.000000  -0.000000
   48  BE 1 XXY   0.000000   0.000000   0.000000  -0.262542  -2.140568
   49  BE 1 XXZ   0.000000   0.000000  -2.962979  -0.000000   0.000000
   50  BE 1 YYX   0.000000   0.000000   0.000000  -2.140568   0.262542
   51  BE 1 YYZ   0.000000   0.000000  -2.962979  -0.000000   0.000000
   52  BE 1 ZZX   0.000000   0.000000   0.000000  -2.876018   0.352745
   53  BE 1 ZZY   0.000000   0.000000   0.000000  -0.352745  -2.876018
   54  BE 1 XYZ   0.000000   0.000000   0.000000   0.000000   0.000000
   55  H  2  S    0.000000   0.000000   0.247270   0.000000   0.000000
   56  H  2  S    0.000000   0.000000   2.111437   0.000000  -0.000000
   57  H  2  S    0.000000   0.000000 -17.420458  -0.000000   0.000000
   58  H  2  S    0.000000   0.000000  -0.234552   0.000000   0.000000
   59  H  2  X    0.000000   0.000000   0.000000   1.172941  -0.143862
   60  H  2  Y    0.000000   0.000000   0.000000   0.143862   1.172941
   61  H  2  Z    0.000000   0.000000   2.418830   0.000000  -0.000000
   62  H  2  X    0.000000   0.000000   0.000000  -0.029146   0.003575
   63  H  2  Y    0.000000   0.000000   0.000000  -0.003575  -0.029146
   64  H  2  Z    0.000000   0.000000  -0.387608  -0.000000  -0.000000
   65  H  2  X    0.000000   0.000000   0.000000  -0.006654   0.000816
   66  H  2  Y    0.000000   0.000000   0.000000  -0.000816  -0.006654
   67  H  2  Z    0.000000   0.000000  -0.002865   0.000000   0.000000
   68  H  2 XX   -0.020307  -0.000621  -0.431548   0.000000   0.000000
   69  H  2 YY    0.020307   0.000621  -0.431548   0.000000   0.000000
   70  H  2 ZZ    0.000000   0.000000  -0.188985   0.000000   0.000000
   71  H  2 XY    0.000718  -0.023449   0.000000   0.000000   0.000000
   72  H  2 XZ    0.000000   0.000000   0.000000  -0.052335   0.006419
   73  H  2 YZ    0.000000   0.000000   0.000000  -0.006419  -0.052335
   74  H  2 XX   -0.003291  -0.000101  -0.023707   0.000000   0.000000
   75  H  2 YY    0.003291   0.000101  -0.023707   0.000000   0.000000
   76  H  2 ZZ    0.000000   0.000000  -0.017810   0.000000   0.000000
   77  H  2 XY    0.000116  -0.003800   0.000000   0.000000   0.000000
   78  H  2 XZ    0.000000   0.000000   0.000000   0.000232  -0.000028
   79  H  2 YZ    0.000000   0.000000   0.000000   0.000028   0.000232
   80  H  3  S    0.000000   0.000000  -0.247270   0.000000   0.000000
   81  H  3  S    0.000000   0.000000  -2.111437   0.000000   0.000000
   82  H  3  S    0.000000   0.000000  17.420458   0.000000  -0.000000
   83  H  3  S    0.000000   0.000000   0.234552  -0.000000  -0.000000
   84  H  3  X    0.000000   0.000000   0.000000   1.172941  -0.143862
   85  H  3  Y    0.000000   0.000000   0.000000   0.143862   1.172941
   86  H  3  Z    0.000000   0.000000   2.418830   0.000000  -0.000000
   87  H  3  X    0.000000   0.000000   0.000000  -0.029146   0.003575
   88  H  3  Y    0.000000   0.000000   0.000000  -0.003575  -0.029146
   89  H  3  Z    0.000000   0.000000  -0.387608  -0.000000  -0.000000
   90  H  3  X    0.000000   0.000000   0.000000  -0.006654   0.000816
   91  H  3  Y    0.000000   0.000000   0.000000  -0.000816  -0.006654
   92  H  3  Z    0.000000   0.000000  -0.002865   0.000000   0.000000
   93  H  3 XX   -0.020307  -0.000621   0.431548  -0.000000   0.000000
   94  H  3 YY    0.020307   0.000621   0.431548  -0.000000   0.000000
   95  H  3 ZZ    0.000000   0.000000   0.188985  -0.000000  -0.000000
   96  H  3 XY    0.000718  -0.023449   0.000000   0.000000   0.000000
   97  H  3 XZ    0.000000   0.000000   0.000000   0.052335  -0.006419
   98  H  3 YZ    0.000000   0.000000   0.000000   0.006419   0.052335
   99  H  3 XX   -0.003291  -0.000101   0.023707   0.000000   0.000000
  100  H  3 YY    0.003291   0.000101   0.023707   0.000000   0.000000
  101  H  3 ZZ    0.000000   0.000000   0.017810   0.000000   0.000000
  102  H  3 XY    0.000116  -0.003800   0.000000   0.000000   0.000000
  103  H  3 XZ    0.000000   0.000000   0.000000  -0.000232   0.000028
  104  H  3 YZ    0.000000   0.000000   0.000000  -0.000028  -0.000232

                     31         32         33         34         35
                   -0.3315    -0.3151    -0.2898    -0.2898    -0.2543
                     A          A          A          A          A   
    1  BE 1  S    0.338112   0.215066   0.000000   0.000000  -0.240834
    2  BE 1  X    0.000000   0.000000   0.000000   0.000000   0.000000
    3  BE 1  Y    0.000000   0.000000   0.000000   0.000000   0.000000
    4  BE 1  Z    0.000000   0.000000   0.000000   0.000000   0.000000
    5  BE 1  S   -2.108536   0.976883   0.000000   0.000000  -5.351054
    6  BE 1  S    8.743339  14.125218   0.000000   0.000000  -7.147616
    7  BE 1  S    1.285518   9.766927   0.000000   0.000000   0.834182
    8  BE 1  X    0.000000   0.000000   0.000000   0.000000   0.000000
    9  BE 1  Y    0.000000   0.000000   0.000000   0.000000   0.000000
   10  BE 1  Z   -0.000000  -0.000000   0.000000   0.000000  -0.000000
   11  BE 1  X    0.000000   0.000000   0.000000   0.000000   0.000000
   12  BE 1  Y    0.000000   0.000000   0.000000   0.000000   0.000000
   13  BE 1  Z   -0.000000  -0.000000   0.000000   0.000000  -0.000000
   14  BE 1  X    0.000000   0.000000   0.000000   0.000000   0.000000
   15  BE 1  Y    0.000000   0.000000   0.000000   0.000000   0.000000
   16  BE 1  Z    0.000000   0.000000   0.000000   0.000000   0.000000
   17  BE 1 XX   -0.295321   0.177758   0.000000   0.000000  -0.569993
   18  BE 1 YY   -0.295321   0.177758   0.000000   0.000000  -0.569993
   19  BE 1 ZZ   -0.226492  -0.019536   0.000000   0.000000  -0.728432
   20  BE 1 XY    0.000000   0.000000   0.000000   0.000000   0.000000
   21  BE 1 XZ    0.000000   0.000000  -0.032971  -0.029574   0.000000
   22  BE 1 YZ    0.000000   0.000000   0.029574  -0.032971   0.000000
   23  BE 1 XX   -1.347366   0.521691   0.000000   0.000000  -2.821713
   24  BE 1 YY   -1.347366   0.521691   0.000000   0.000000  -2.821713
   25  BE 1 ZZ   -1.098431   0.652019   0.000000   0.000000  -3.448219
[...]
   53  BE 1 ZZY  -0.149246  -0.016869   0.000000   0.000000   0.000000
   54  BE 1 XYZ   0.000000   0.000000   0.000000   0.000000   0.000000
   55  H  2  S    0.000000   0.000000  -0.948111   1.558532   0.469305
   56  H  2  S    0.000000   0.000000   0.791852  -0.230200   0.170802
   57  H  2  S    0.000000   0.000000 -14.044524 -24.337209  -4.797238
   58  H  2  S    0.000000   0.000000   2.984587 -29.780244   6.471390
   59  H  2  X    0.071263  -0.630492   0.000000   0.000000   0.000000
   60  H  2  Y   -0.630492  -0.071263   0.000000   0.000000   0.000000
   61  H  2  Z    0.000000   0.000000   3.712905   6.086251  -0.391634
   62  H  2  X    0.318440  -2.817359   0.000000   0.000000   0.000000
   63  H  2  Y   -2.817359  -0.318440   0.000000   0.000000   0.000000
   64  H  2  Z    0.000000   0.000000  -0.647288  11.775433  -6.154797
   65  H  2  X   -0.097961   0.866700   0.000000   0.000000   0.000000
   66  H  2  Y    0.866700   0.097961   0.000000   0.000000   0.000000
   67  H  2  Z    0.000000   0.000000  -1.009693  -0.573951   0.463271
   68  H  2 XX    0.000000   0.000000  -1.175466   0.418140   0.481689
   69  H  2 YY    0.000000   0.000000  -1.175466   0.418140   0.481689
   70  H  2 ZZ    0.000000   0.000000  -1.805158  -1.227266   2.175722
   71  H  2 XY    0.000000   0.000000   0.000000   0.000000   0.000000
   72  H  2 XZ   -0.101930   0.901810   0.000000   0.000000   0.000000
   73  H  2 YZ    0.901810   0.101930   0.000000   0.000000   0.000000
   74  H  2 XX    0.000000   0.000000   0.289205   0.408222   0.349820
   75  H  2 YY    0.000000   0.000000   0.289205   0.408222   0.349820
   76  H  2 ZZ    0.000000   0.000000   0.667295  -1.482237   1.828672
   77  H  2 XY    0.000000   0.000000   0.000000   0.000000   0.000000
   78  H  2 XZ   -0.076401   0.675950   0.000000   0.000000   0.000000
   79  H  2 YZ    0.675950   0.076401   0.000000   0.000000   0.000000
   80  H  3  S    0.000000   0.000000   0.948111  -1.558532   0.469305
   81  H  3  S    0.000000   0.000000  -0.791852   0.230200   0.170802
   82  H  3  S    0.000000   0.000000  14.044524  24.337209  -4.797238
   83  H  3  S    0.000000   0.000000  -2.984587  29.780244   6.471390
   84  H  3  X    0.071263  -0.630492   0.000000   0.000000   0.000000
   85  H  3  Y   -0.630492  -0.071263   0.000000   0.000000   0.000000
   86  H  3  Z    0.000000   0.000000   3.712905   6.086251   0.391634
   87  H  3  X    0.318440  -2.817359   0.000000   0.000000   0.000000
   88  H  3  Y   -2.817359  -0.318440   0.000000   0.000000   0.000000
   89  H  3  Z    0.000000   0.000000  -0.647288  11.775433   6.154797
   90  H  3  X   -0.097961   0.866700   0.000000   0.000000   0.000000
   91  H  3  Y    0.866700   0.097961   0.000000   0.000000   0.000000
   92  H  3  Z    0.000000   0.000000  -1.009693  -0.573951  -0.463271
   93  H  3 XX    0.000000   0.000000   1.175466  -0.418140   0.481689
   94  H  3 YY    0.000000   0.000000   1.175466  -0.418140   0.481689
   95  H  3 ZZ    0.000000   0.000000   1.805158   1.227266   2.175722
   96  H  3 XY    0.000000   0.000000   0.000000   0.000000   0.000000
   97  H  3 XZ    0.101930  -0.901810   0.000000   0.000000   0.000000
   98  H  3 YZ   -0.901810  -0.101930   0.000000   0.000000   0.000000
   99  H  3 XX    0.000000   0.000000  -0.289205  -0.408222   0.349820
  100  H  3 YY    0.000000   0.000000  -0.289205  -0.408222   0.349820
  101  H  3 ZZ    0.000000   0.000000  -0.667295   1.482237   1.828672
  102  H  3 XY    0.000000   0.000000   0.000000   0.000000   0.000000
  103  H  3 XZ    0.076401  -0.675950   0.000000   0.000000   0.000000
  104  H  3 YZ   -0.675950  -0.076401   0.000000   0.000000   0.000000

                    101        102        103        104
                    4.8971     5.0049     5.1936     8.7985
                     A          A          A          A   
    1  BE 1  S  -30.399566   0.000000  -2.347905  -0.000000
    2  BE 1  X    0.000000   0.000000   0.000000   0.000000
    3  BE 1  Y    0.000000   0.000000   0.000000  -0.000000
    4  BE 1  Z    0.000000   6.666450   0.000000 -80.640491
    5  BE 1  S   -2.372164   0.000000  -0.343979  -0.000000
    6  BE 1  S   50.339395  -0.000000  97.098344   0.000000
    7  BE 1  S    0.595042   0.000000  -1.400727   0.000000
    8  BE 1  X    0.000000   0.000000   0.000000   0.000000
    9  BE 1  Y    0.000000   0.000000   0.000000   0.000000
   10  BE 1  Z    0.000000  -0.116039   0.000000   7.738831
   11  BE 1  X    0.000000   0.000000   0.000000   0.000000
   12  BE 1  Y    0.000000   0.000000   0.000000   0.000000
   13  BE 1  Z   -0.000000  11.581090   0.000000  14.856117
   14  BE 1  X    0.000000  -0.000000   0.000000  -0.000000
   15  BE 1  Y    0.000000   0.000000  -0.000000   0.000000
   16  BE 1  Z    0.000000  -5.718992   0.000000 115.184082
   17  BE 1 XX    3.437924   0.000000  -0.743383   0.000000
   18  BE 1 YY    3.437924   0.000000  -0.743383   0.000000
   19  BE 1 ZZ    2.013869  -0.000000   8.356879   0.000000
   20  BE 1 XY    0.000000   0.000000   0.000000   0.000000
   21  BE 1 XZ    0.000000   0.000000   0.000000   0.000000
   22  BE 1 YZ    0.000000   0.000000   0.000000   0.000000
   23  BE 1 XX   -2.096380   0.000000  -5.155558  -0.000000
   24  BE 1 YY   -2.096380   0.000000  -5.155558  -0.000000
   25  BE 1 ZZ   -0.633024   0.000000  -3.672187  -0.000000
   26  BE 1 XY    0.000000   0.000000   0.000000   0.000000
   27  BE 1 XZ    0.000000   0.000000   0.000000   0.000000
   28  BE 1 YZ    0.000000   0.000000   0.000000   0.000000
   29  BE 1 XX   -8.156092   0.000000 -18.414090  -0.000000
   30  BE 1 YY   -8.156092   0.000000 -18.414090  -0.000000
   31  BE 1 ZZ   -7.208634   0.000000  -7.327973  -0.000000
   32  BE 1 XY    0.000000   0.000000   0.000000   0.000000
   33  BE 1 XZ    0.000000   0.000000   0.000000   0.000000
   34  BE 1 YZ    0.000000   0.000000   0.000000   0.000000
   35  BE 1 XXX   0.000000   0.000000   0.000000   0.000000
   36  BE 1 YYY   0.000000   0.000000   0.000000   0.000000
   37  BE 1 ZZZ  -0.000000   6.982381   0.000000 -18.288941
   38  BE 1 XXY   0.000000   0.000000   0.000000   0.000000
   39  BE 1 XXZ   0.000000   1.426705   0.000000  -3.776086
   40  BE 1 YYX   0.000000   0.000000   0.000000   0.000000
   41  BE 1 YYZ   0.000000   1.426705   0.000000  -3.776086
   42  BE 1 ZZX   0.000000   0.000000   0.000000   0.000000
   43  BE 1 ZZY   0.000000   0.000000   0.000000   0.000000
   44  BE 1 XYZ   0.000000   0.000000   0.000000   0.000000
   45  BE 1 XXX   0.000000   0.000000   0.000000   0.000000
   46  BE 1 YYY   0.000000   0.000000   0.000000  -0.000000
   47  BE 1 ZZZ   0.000000  19.391345   0.000000 -32.076627
   48  BE 1 XXY   0.000000   0.000000   0.000000  -0.000000
   49  BE 1 XXZ   0.000000   5.504388   0.000000 -16.159015
   50  BE 1 YYX   0.000000   0.000000   0.000000   0.000000
   51  BE 1 YYZ   0.000000   5.504388   0.000000 -16.159015
   52  BE 1 ZZX   0.000000   0.000000   0.000000   0.000000
   53  BE 1 ZZY   0.000000   0.000000   0.000000  -0.000000
   54  BE 1 XYZ   0.000000   0.000000   0.000000   0.000000
   55  H  2  S   -0.327437 -10.871629  12.372092  -3.470146
   56  H  2  S   -0.181278  -0.012830  -1.049502   9.198450
   57  H  2  S   -3.640694 -21.712630 -36.527852   5.138796
   58  H  2  S    0.126428   6.670889 -22.941794  13.546133
   59  H  2  X    0.000000   0.000000   0.000000   0.000000
   60  H  2  Y    0.000000   0.000000   0.000000   0.000000
   61  H  2  Z    1.041829   7.551012   6.033725  -2.748763
   62  H  2  X    0.000000   0.000000   0.000000   0.000000
   63  H  2  Y    0.000000   0.000000   0.000000   0.000000
   64  H  2  Z   -0.276496   2.518277   5.386954  -5.375324
   65  H  2  X    0.000000   0.000000   0.000000   0.000000
   66  H  2  Y    0.000000   0.000000   0.000000   0.000000
   67  H  2  Z   -0.190853  -0.276992  -0.189727   0.052653
   68  H  2 XX   -0.029613  -3.818696   4.456453  -2.360535
   69  H  2 YY   -0.029613  -3.818696   4.456453  -2.360535
   70  H  2 ZZ   -0.127178  -4.643087   2.219053  -0.371064
   71  H  2 XY    0.000000   0.000000   0.000000   0.000000
   72  H  2 XZ    0.000000   0.000000   0.000000   0.000000
   73  H  2 YZ    0.000000   0.000000   0.000000   0.000000
   74  H  2 XX   -0.006064  -2.277324   2.501408  -0.553471
   75  H  2 YY   -0.006064  -2.277324   2.501408  -0.553471
   76  H  2 ZZ    0.479267  -1.960034   1.365904  -0.263644
   77  H  2 XY    0.000000   0.000000   0.000000   0.000000
   78  H  2 XZ    0.000000   0.000000   0.000000   0.000000
   79  H  2 YZ    0.000000   0.000000   0.000000   0.000000
   80  H  3  S   -0.327437  10.871629  12.372092   3.470146
   81  H  3  S   -0.181278   0.012830  -1.049502  -9.198450
   82  H  3  S   -3.640694  21.712630 -36.527852  -5.138796
   83  H  3  S    0.126428  -6.670889 -22.941794 -13.546133
   84  H  3  X    0.000000   0.000000   0.000000   0.000000
   85  H  3  Y    0.000000   0.000000   0.000000   0.000000
   86  H  3  Z   -1.041829   7.551012  -6.033725  -2.748763
   87  H  3  X    0.000000   0.000000   0.000000   0.000000
   88  H  3  Y    0.000000   0.000000   0.000000   0.000000
   89  H  3  Z    0.276496   2.518277  -5.386954  -5.375324
   90  H  3  X    0.000000   0.000000   0.000000   0.000000
   91  H  3  Y    0.000000   0.000000   0.000000   0.000000
   92  H  3  Z    0.190853  -0.276992   0.189727   0.052653
   93  H  3 XX   -0.029613   3.818696   4.456453   2.360535
   94  H  3 YY   -0.029613   3.818696   4.456453   2.360535
   95  H  3 ZZ   -0.127178   4.643087   2.219053   0.371064
   96  H  3 XY    0.000000   0.000000   0.000000   0.000000
   97  H  3 XZ    0.000000   0.000000   0.000000   0.000000
   98  H  3 YZ    0.000000   0.000000   0.000000   0.000000
   99  H  3 XX   -0.006064   2.277324   2.501408   0.553471
  100  H  3 YY   -0.006064   2.277324   2.501408   0.553471
  101  H  3 ZZ    0.479267   1.960034   1.365904   0.263644
  102  H  3 XY    0.000000   0.000000   0.000000   0.000000
  103  H  3 XZ    0.000000   0.000000   0.000000   0.000000
  104  H  3 YZ    0.000000   0.000000   0.000000   0.000000
 ...... END OF RHF CALCULATION ......
 CPU     0: STEP CPU TIME=     2.33 TOTAL CPU TIME=          5.2 (      0.1 MIN)
 TOTAL WALL CLOCK TIME=          6.3 SECONDS, CPU UTILIZATION IS    82.31%

     ----------------------------------------------------------------
     PROPERTY VALUES FOR THE RHF   SELF-CONSISTENT FIELD WAVEFUNCTION
     ----------------------------------------------------------------

          -----------------
          ENERGY COMPONENTS
          -----------------

         WAVEFUNCTION NORMALIZATION =       1.0000000000

                ONE ELECTRON ENERGY =      -6.0384603001
                TWO ELECTRON ENERGY =       2.0783921896
           NUCLEAR REPULSION ENERGY =       1.7953088221
                                      ------------------
                       TOTAL ENERGY =      -2.1647592884

 ELECTRON-ELECTRON POTENTIAL ENERGY =       2.0783921896
  NUCLEUS-ELECTRON POTENTIAL ENERGY =      -7.7780118569
   NUCLEUS-NUCLEUS POTENTIAL ENERGY =       1.7953088221
                                      ------------------
             TOTAL POTENTIAL ENERGY =      -3.9043108452
               TOTAL KINETIC ENERGY =       1.7395515567
                 VIRIAL RATIO (V/T) =       2.2444352569

          ---------------------------------------
          MULLIKEN AND LOWDIN POPULATION ANALYSES
          ---------------------------------------

     ATOMIC MULLIKEN POPULATION IN EACH MOLECULAR ORBITAL

                      1          2

                  2.000000   2.000000

    1             1.023648   0.432749
    2             0.488176   0.783626
    3             0.488176   0.783626

               ----- POPULATIONS IN EACH AO -----
                             MULLIKEN      LOWDIN
              1  BE 1  S      1.40554     0.14394
              2  BE 1  X      0.00000     0.00000
              3  BE 1  Y      0.00000     0.00000
              4  BE 1  Z      1.40330     0.20157
              5  BE 1  S     -0.04882     0.06404
              6  BE 1  S     -0.17845     0.08602
              7  BE 1  S     -0.02745     0.02768
              8  BE 1  X      0.00000     0.00000
              9  BE 1  Y      0.00000     0.00000
             10  BE 1  Z      0.00034     0.05348
             11  BE 1  X      0.00000     0.00000
             12  BE 1  Y      0.00000     0.00000
             13  BE 1  Z      0.19678     0.22159
             14  BE 1  X      0.00000     0.00000
             15  BE 1  Y      0.00000     0.00000
             16  BE 1  Z     -1.65119     0.12826
             17  BE 1 XX     -0.02709     0.04346
             18  BE 1 YY     -0.02709     0.04346
             19  BE 1 ZZ      0.13739     0.17259
             20  BE 1 XY      0.00000     0.00000
             21  BE 1 XZ      0.00000     0.00000
             22  BE 1 YZ      0.00000     0.00000
             23  BE 1 XX     -0.04046     0.02897
             24  BE 1 YY     -0.04046     0.02897
             25  BE 1 ZZ     -0.12451     0.16037
             26  BE 1 XY      0.00000     0.00000
             27  BE 1 XZ      0.00000     0.00000
             28  BE 1 YZ      0.00000     0.00000
             29  BE 1 XX     -0.01561     0.00480
             30  BE 1 YY     -0.01561     0.00480
             31  BE 1 ZZ      0.02629     0.04398
             32  BE 1 XY      0.00000     0.00000
             33  BE 1 XZ      0.00000     0.00000
             34  BE 1 YZ      0.00000     0.00000
             35  BE 1 XXX     0.00000     0.00000
             36  BE 1 YYY     0.00000     0.00000
             37  BE 1 ZZZ     0.08770     0.23265
             38  BE 1 XXY     0.00000     0.00000
             39  BE 1 XXZ    -0.00507     0.03262
             40  BE 1 YYX     0.00000     0.00000
             41  BE 1 YYZ    -0.00507     0.03262
             42  BE 1 ZZX     0.00000     0.00000
             43  BE 1 ZZY     0.00000     0.00000
             44  BE 1 XYZ     0.00000     0.00000
             45  BE 1 XXX     0.00000     0.00000
             46  BE 1 YYY     0.00000     0.00000
             47  BE 1 ZZZ     0.23774     0.09075
             48  BE 1 XXY     0.00000     0.00000
             49  BE 1 XXZ     0.08411     0.01394
             50  BE 1 YYX     0.00000     0.00000
             51  BE 1 YYZ     0.08411     0.01394
             52  BE 1 ZZX     0.00000     0.00000
             53  BE 1 ZZY     0.00000     0.00000
             54  BE 1 XYZ     0.00000     0.00000
             55  H  2  S      1.50664     0.33251
             56  H  2  S     -0.03977     0.03507
             57  H  2  S     -0.02469     0.11673
             58  H  2  S     -0.23859     0.21968
             59  H  2  X      0.00000     0.00000
             60  H  2  Y      0.00000     0.00000
             61  H  2  Z     -0.01665     0.02627
             62  H  2  X      0.00000     0.00000
             63  H  2  Y      0.00000     0.00000
             64  H  2  Z     -0.00549     0.01095
             65  H  2  X      0.00000     0.00000
             66  H  2  Y      0.00000     0.00000
             67  H  2  Z      0.00143     0.00214
             68  H  2 XX      0.03421     0.03164
             69  H  2 YY      0.03421     0.03164
             70  H  2 ZZ      0.00982     0.04899
             71  H  2 XY      0.00000     0.00000
             72  H  2 XZ      0.00000     0.00000
             73  H  2 YZ      0.00000     0.00000
             74  H  2 XX      0.00254     0.06135
             75  H  2 YY      0.00254     0.06135
             76  H  2 ZZ      0.00562     0.08442
             77  H  2 XY      0.00000     0.00000
             78  H  2 XZ      0.00000     0.00000
             79  H  2 YZ      0.00000     0.00000
             80  H  3  S      1.50664     0.33251
             81  H  3  S     -0.03977     0.03507
             82  H  3  S     -0.02469     0.11673
             83  H  3  S     -0.23859     0.21968
             84  H  3  X      0.00000     0.00000
             85  H  3  Y      0.00000     0.00000
             86  H  3  Z     -0.01665     0.02627
             87  H  3  X      0.00000     0.00000
             88  H  3  Y      0.00000     0.00000
             89  H  3  Z     -0.00549     0.01095
             90  H  3  X      0.00000     0.00000
             91  H  3  Y      0.00000     0.00000
             92  H  3  Z      0.00143     0.00214
             93  H  3 XX      0.03421     0.03164
             94  H  3 YY      0.03421     0.03164
             95  H  3 ZZ      0.00982     0.04899
             96  H  3 XY      0.00000     0.00000
             97  H  3 XZ      0.00000     0.00000
             98  H  3 YZ      0.00000     0.00000
             99  H  3 XX      0.00254     0.06135
            100  H  3 YY      0.00254     0.06135
            101  H  3 ZZ      0.00562     0.08442
            102  H  3 XY      0.00000     0.00000
            103  H  3 XZ      0.00000     0.00000
            104  H  3 YZ      0.00000     0.00000

          ----- MULLIKEN ATOMIC OVERLAP POPULATIONS -----
          (OFF-DIAGONAL ELEMENTS NEED TO BE MULTIPLIED BY 2)

             1           2           3

    1    0.7779533
    2    0.3392216   1.0307185
    3    0.3392216  -0.0981384   1.0307185

          TOTAL MULLIKEN AND LOWDIN ATOMIC POPULATIONS
       ATOM         MULL.POP.    CHARGE          LOW.POP.     CHARGE
    1 BE            1.456397    0.543603         1.874525    0.125475
    2 H             1.271802   -0.271802         1.062737   -0.062737
    3 H             1.271802   -0.271802         1.062737   -0.062737

          -------------------------------
          BOND ORDER AND VALENCE ANALYSIS     BOND ORDER THRESHOLD=0.050
          -------------------------------

                   BOND                       BOND                       BOND
  ATOM PAIR DIST  ORDER      ATOM PAIR DIST  ORDER      ATOM PAIR DIST  ORDER
    1   2  1.326  0.839        1   3  1.326  0.839

                       TOTAL       BONDED        FREE
      ATOM            VALENCE     VALENCE     VALENCE
    1 BE                1.678       1.678      -0.000
    2 H                 0.803       0.803      -0.000
    3 H                 0.803       0.803       0.000

          ---------------------
          ELECTROSTATIC MOMENTS
          ---------------------

 POINT   1           X           Y           Z (BOHR)    CHARGE
                 0.000000    0.000000    0.000000       -0.00 (A.U.)
         DX          DY          DZ         /D/  (DEBYE)
     0.000000    0.000000   -0.000000    0.000000
 ...... END OF PROPERTY EVALUATION ......
 CPU     0: STEP CPU TIME=     0.43 TOTAL CPU TIME=          5.6 (      0.1 MIN)
 TOTAL WALL CLOCK TIME=          6.9 SECONDS, CPU UTILIZATION IS    82.34%
                580000  WORDS OF DYNAMIC MEMORY USED
 EXECUTION OF GAMESS TERMINATED NORMALLY Tue Jul 27 06:56:09 2021
 DDI: 263640 bytes (0.3 MB / 0 MWords) used by master data server.

 ----------------------------------------
 CPU timing information for all processes
 ========================================
 0: 2.665 + 3.181 = 5.847
 1: 6.118 + 0.523 = 6.641
 2: 6.152 + 0.518 = 6.670
 3: 4.887 + 0.448 = 5.335
 4: 8.767 + 0.340 = 9.108
 5: 8.756 + 0.324 = 9.80
 6: 8.763 + 0.316 = 9.79
 7: 8.709 + 0.372 = 9.82
 ----------------------------------------
unset echo
----- accounting info -----
Files used on the master node nid02612 were:
-rw-r----- 1 haihan haihan      2881 Jul 27 06:55 /global/cscratch1/sd/haihan/gamess_44817172/hf.F05
-rw-rw---- 1 haihan haihan  12421104 Jul 27 06:56 /global/cscratch1/sd/haihan/gamess_44817172/hf.F08
-rw-rw---- 1 haihan haihan 222822400 Jul 27 06:56 /global/cscratch1/sd/haihan/gamess_44817172/hf.F10
-rw-rw---- 1 haihan haihan    179351 Jul 27 06:56 /global/cscratch1/sd/haihan/gamess_44817172/hf.dat
ls: No match.
ls: No match.
ls: No match.
Tue Jul 27 06:56:13 PDT 2021
3.216u 1.569s 0:18.46 25.8%	0+0k 1616+9840io 5pf+0w
