/global/u2/h/haihan/Research/BeH2/instability/QZqmcT/001/runs/optJ123
  Input file(s): optJ123.in.xml 

=====================================================
                    QMCPACK 3.9.9

       (c) Copyright 2003-  QMCPACK developers

                    Please cite:
 J. Kim et al. J. Phys. Cond. Mat. 30 195901 (2018)
      https://doi.org/10.1088/1361-648X/aab9c3

  Git branch: develop
  Last git commit: a854014790c5309de44bee11aacb72110d1159f0
  Last git commit date: Thu Aug 6 17:11:13 2020 -0400
  Last git commit subject: Merge pull request #2622 from Hyeondeok-Shin/deterministic_test
=====================================================
  Global options 

  Total number of MPI ranks = 4
  Number of MPI groups      = 1
  MPI group ID              = 0
  Number of ranks in group  = 4
  MPI ranks per node        = 4
  OMP 1st level threads     = 1
  OMP nested threading disabled or only 1 thread on the 2nd level

  Precision used in this calculation, see definitions in the manual:
  Base precision      = double
  Full precision      = double

  Structure-of-arrays (SoA) optimization enabled

  Input XML = optJ123.in.xml

  Project = optJ123
  date    = 2021-01-07 12:08:59 PST
  host    = nid03249

 Random Number
 -------------
  Offset for the random number seeds based on time: 603

  Range of prime numbers to use as seeds over processors and threads = 4451-4483


 Lattice
 -------
  Lattice is not specified for the Open BC. Add a huge box.
  Simulation cell radius   = 5000000000.000000 bohr
  Wigner-Seitz cell radius = 5000000000.000000 bohr

 Particle Set 
 ------------
  Name: ion0
  Initializing the lattice by the global supercell
  All the species have the same mass 1.000000
  Particle set size: 3

 Particle Set 
 ------------
  Name: e
  Initializing the lattice by the global supercell
  All the species have the same mass 1.000000
  Particle set size: 4

 Wavefunction setup: 
 ------------------- 
  Name: psi0
  LCAO: SoaAtomicBasisSet<MultiQuintic,1>
Reading BasisSet from HDF5 file:../scf/scf.h5
<input node="atomicBasisSet" name="gaussian" expandYlm="pyscf" angular="spherical" elementType="Be" normalized="no" type="Numerical" expM="0" />
  AO BasisSet for Be
   Spherical Harmonics contain (-1)^m factor
   Angular momentum m expanded as -l, ... ,l, with the exception of L=1 (1,-1,0)
   Grid is created by the input paremters in h5
    Using log grid ri = 0.000001 rf = 100.000000 npts = 1001
   R(n,l,m,s) 0 0 0 0
   R(n,l,m,s) 1 0 0 0
   R(n,l,m,s) 2 0 0 0
   R(n,l,m,s) 3 0 0 0
   R(n,l,m,s) 4 0 0 0
   R(n,l,m,s) 5 1 0 0
   R(n,l,m,s) 6 1 0 0
   R(n,l,m,s) 7 1 0 0
   R(n,l,m,s) 8 1 0 0
   R(n,l,m,s) 9 1 0 0
   R(n,l,m,s) 10 2 0 0
   R(n,l,m,s) 11 2 0 0
   R(n,l,m,s) 12 2 0 0
   R(n,l,m,s) 13 2 0 0
   R(n,l,m,s) 14 3 0 0
   R(n,l,m,s) 15 3 0 0
   R(n,l,m,s) 16 3 0 0
   R(n,l,m,s) 17 4 0 0
   R(n,l,m,s) 18 4 0 0
Expanding Ylm as L=1 as (1,-1,0) and L>1 as -l,-l+1,...,l-1,l
   Adding 1 spherical orbitals
   Adding 1 spherical orbitals
   Adding 1 spherical orbitals
   Adding 1 spherical orbitals
   Adding 1 spherical orbitals
   Adding 3 spherical orbitals
   Adding 3 spherical orbitals
   Adding 3 spherical orbitals
   Adding 3 spherical orbitals
   Adding 3 spherical orbitals
   Adding 5 spherical orbitals
   Adding 5 spherical orbitals
   Adding 5 spherical orbitals
   Adding 5 spherical orbitals
   Adding 7 spherical orbitals
   Adding 7 spherical orbitals
   Adding 7 spherical orbitals
   Adding 9 spherical orbitals
   Adding 9 spherical orbitals
  Setting cutoff radius 10589458611967464.000000

   Maximum Angular Momentum  = 4
   Number of Radial functors = 19
   Basis size                = 79

<input node="atomicBasisSet" name="gaussian" expandYlm="pyscf" angular="spherical" elementType="H" normalized="no" type="Numerical" expM="0" />
  AO BasisSet for H
   Spherical Harmonics contain (-1)^m factor
   Angular momentum m expanded as -l, ... ,l, with the exception of L=1 (1,-1,0)
   Grid is created by the input paremters in h5
    Using log grid ri = 0.000001 rf = 100.000000 npts = 1001
   R(n,l,m,s) 0 0 0 0
   R(n,l,m,s) 1 0 0 0
   R(n,l,m,s) 2 0 0 0
   R(n,l,m,s) 3 0 0 0
   R(n,l,m,s) 4 0 0 0
   R(n,l,m,s) 5 1 0 0
   R(n,l,m,s) 6 1 0 0
   R(n,l,m,s) 7 1 0 0
   R(n,l,m,s) 8 1 0 0
   R(n,l,m,s) 9 2 0 0
   R(n,l,m,s) 10 2 0 0
   R(n,l,m,s) 11 2 0 0
   R(n,l,m,s) 12 3 0 0
   R(n,l,m,s) 13 3 0 0
Expanding Ylm as L=1 as (1,-1,0) and L>1 as -l,-l+1,...,l-1,l
   Adding 1 spherical orbitals
   Adding 1 spherical orbitals
   Adding 1 spherical orbitals
   Adding 1 spherical orbitals
   Adding 1 spherical orbitals
   Adding 3 spherical orbitals
   Adding 3 spherical orbitals
   Adding 3 spherical orbitals
   Adding 3 spherical orbitals
   Adding 5 spherical orbitals
   Adding 5 spherical orbitals
   Adding 5 spherical orbitals
   Adding 7 spherical orbitals
   Adding 7 spherical orbitals
  Setting cutoff radius 995674776766.907715

   Maximum Angular Momentum  = 3
   Number of Radial functors = 14
   Basis size                = 46

  Created SPOSet builder named 'LCAOBSet' of type molecularorbital
Reuse SPOSetBuilder "LCAOBSet" type MolecularOrbital
  Building SPOSet '' with '' basis set.
Reuse SPOSetBuilder "LCAOBSet" type MolecularOrbital
  Building SPOSet '' with '' basis set.
  Creating a determinant updet group=0 sposet=updet
  Reusing a SPO set updet
  Setting delay_rank by default!
  Using rank-1 Sherman-Morrison Fahy update (SM1)
  Using DiracDeterminant with DelayedUpdate engine

  Creating a determinant downdet group=1 sposet=downdet
  Reusing a SPO set downdet
  Setting delay_rank by default!
  Using rank-1 Sherman-Morrison Fahy update (SM1)
  Using DiracDeterminant with DelayedUpdate engine

  Added a fermionic WaveFunctionComponent SlaterDet

   Jastrow
   -------
    Name: J1   Type: One-Body   Function: bspline

    Radial function for element: H
     Number of parameters: 10
     Cusp: 0.000000
     Cutoff radius: 5.000000

     Name                        Value Type Recompute Use Index
     ---- ---------------------------- ---- --------- --- -----
     eH_0                -2.789896e-01    1         1  ON     0
     eH_1                -2.574424e-01    1         1  ON     1
     eH_2                -2.301576e-01    1         1  ON     2
     eH_3                -1.867567e-01    1         1  ON     3
     eH_4                -1.444028e-01    1         1  ON     4
     eH_5                -1.134107e-01    1         1  ON     5
     eH_6                -9.379652e-02    1         1  ON     6
     eH_7                -5.258730e-02    1         1  ON     7
     eH_8                -3.052072e-02    1         1  ON     8
     eH_9                -1.323028e-02    1         1  ON     9

    Radial function for element: Be
     Number of parameters: 10
     Cusp: 0
     Cutoff radius: 5

      Name                        Value Type Recompute Use Index
     ----- ---------------------------- ---- --------- --- -----
     eBe_0                -2.539639e-01    1         1  ON     0
     eBe_1                -1.906619e-01    1         1  ON     1
     eBe_2                -1.850019e-01    1         1  ON     2
     eBe_3                -1.544691e-01    1         1  ON     3
     eBe_4                -1.267606e-01    1         1  ON     4
     eBe_5                -9.807175e-02    1         1  ON     5
     eBe_6                -6.625743e-02    1         1  ON     6
     eBe_7                -3.499839e-02    1         1  ON     7
     eBe_8                -5.004778e-03    1         1  ON     8
     eBe_9                 9.306753e-03    1         1  ON     9


   Jastrow
   -------
    Name: J2   Type: Two-Body   Function: bspline

    Radial function for species: u - u
     Number of parameters: 10
     Cusp: -0.25
     Cutoff radius: 5

     Name                        Value Type Recompute Use Index
     ---- ---------------------------- ---- --------- --- -----
     uu_0                -2.307466e-06    1         1  ON     0
     uu_1                 3.045469e-02    1         1  ON     1
     uu_2                 1.833928e-01    1         1  ON     2
     uu_3                 1.436092e-01    1         1  ON     3
     uu_4                 1.081016e-01    1         1  ON     4
     uu_5                 6.238969e-02    1         1  ON     5
     uu_6                 3.622667e-02    1         1  ON     6
     uu_7                 1.828752e-02    1         1  ON     7
     uu_8                 9.258257e-03    1         1  ON     8
     uu_9                 5.753800e-03    1         1  ON     9

    Radial function for species: u - d
     Number of parameters: 10
     Cusp: -0.5
     Cutoff radius: 5

     Name                        Value Type Recompute Use Index
     ---- ---------------------------- ---- --------- --- -----
     ud_0                 8.026367e-01    1         1  ON     0
     ud_1                 6.440914e-01    1         1  ON     1
     ud_2                 4.847783e-01    1         1  ON     2
     ud_3                 3.630230e-01    1         1  ON     3
     ud_4                 2.570055e-01    1         1  ON     4
     ud_5                 1.749374e-01    1         1  ON     5
     ud_6                 1.094215e-01    1         1  ON     6
     ud_7                 6.533133e-02    1         1  ON     7
     ud_8                 3.185682e-02    1         1  ON     8
     ud_9                 1.329022e-02    1         1  ON     9


   Jastrow
   -------
    Name: J3   Type: eeI   Function: polynomial

     Ion: H   electron-electron: u - u
      Number of parameters for e-e: 3, for e-I: 3
      Cutoff radius: 5

Expected 26 parameters, but found 0 in PolynomialFunctor3D.
        Name                        Value Type Recompute Use Index
      ------ ---------------------------- ---- --------- --- -----
       uuH_0                 0.000000e+00    1         1  ON     0
       uuH_1                 0.000000e+00    1         1  ON     1
       uuH_2                 0.000000e+00    1         1  ON     2
       uuH_3                 0.000000e+00    1         1  ON     3
       uuH_4                 0.000000e+00    1         1  ON     4
       uuH_5                 0.000000e+00    1         1  ON     5
       uuH_6                 0.000000e+00    1         1  ON     6
       uuH_7                 0.000000e+00    1         1  ON     7
       uuH_8                 0.000000e+00    1         1  ON     8
       uuH_9                 0.000000e+00    1         1  ON     9
      uuH_10                 0.000000e+00    1         1  ON    10
      uuH_11                 0.000000e+00    1         1  ON    11
      uuH_12                 0.000000e+00    1         1  ON    12
      uuH_13                 0.000000e+00    1         1  ON    13
      uuH_14                 0.000000e+00    1         1  ON    14
      uuH_15                 0.000000e+00    1         1  ON    15
      uuH_16                 0.000000e+00    1         1  ON    16
      uuH_17                 0.000000e+00    1         1  ON    17
      uuH_18                 0.000000e+00    1         1  ON    18
      uuH_19                 0.000000e+00    1         1  ON    19
      uuH_20                 0.000000e+00    1         1  ON    20
      uuH_21                 0.000000e+00    1         1  ON    21
      uuH_22                 0.000000e+00    1         1  ON    22
      uuH_23                 0.000000e+00    1         1  ON    23
      uuH_24                 0.000000e+00    1         1  ON    24
      uuH_25                 0.000000e+00    1         1  ON    25

     Ion: H   electron-electron: u - d
      Number of parameters for e-e: 3, for e-I: 3
      Cutoff radius: 5

Expected 26 parameters, but found 0 in PolynomialFunctor3D.
        Name                        Value Type Recompute Use Index
      ------ ---------------------------- ---- --------- --- -----
       udH_0                 0.000000e+00    1         1  ON     0
       udH_1                 0.000000e+00    1         1  ON     1
       udH_2                 0.000000e+00    1         1  ON     2
       udH_3                 0.000000e+00    1         1  ON     3
       udH_4                 0.000000e+00    1         1  ON     4
       udH_5                 0.000000e+00    1         1  ON     5
       udH_6                 0.000000e+00    1         1  ON     6
       udH_7                 0.000000e+00    1         1  ON     7
       udH_8                 0.000000e+00    1         1  ON     8
       udH_9                 0.000000e+00    1         1  ON     9
      udH_10                 0.000000e+00    1         1  ON    10
      udH_11                 0.000000e+00    1         1  ON    11
      udH_12                 0.000000e+00    1         1  ON    12
      udH_13                 0.000000e+00    1         1  ON    13
      udH_14                 0.000000e+00    1         1  ON    14
      udH_15                 0.000000e+00    1         1  ON    15
      udH_16                 0.000000e+00    1         1  ON    16
      udH_17                 0.000000e+00    1         1  ON    17
      udH_18                 0.000000e+00    1         1  ON    18
      udH_19                 0.000000e+00    1         1  ON    19
      udH_20                 0.000000e+00    1         1  ON    20
      udH_21                 0.000000e+00    1         1  ON    21
      udH_22                 0.000000e+00    1         1  ON    22
      udH_23                 0.000000e+00    1         1  ON    23
      udH_24                 0.000000e+00    1         1  ON    24
      udH_25                 0.000000e+00    1         1  ON    25

     Ion: Be   electron-electron: u - u
      Number of parameters for e-e: 3, for e-I: 3
      Cutoff radius: 5

Expected 26 parameters, but found 0 in PolynomialFunctor3D.
         Name                        Value Type Recompute Use Index
      ------- ---------------------------- ---- --------- --- -----
       uuBe_0                 0.000000e+00    1         1  ON     0
       uuBe_1                 0.000000e+00    1         1  ON     1
       uuBe_2                 0.000000e+00    1         1  ON     2
       uuBe_3                 0.000000e+00    1         1  ON     3
       uuBe_4                 0.000000e+00    1         1  ON     4
       uuBe_5                 0.000000e+00    1         1  ON     5
       uuBe_6                 0.000000e+00    1         1  ON     6
       uuBe_7                 0.000000e+00    1         1  ON     7
       uuBe_8                 0.000000e+00    1         1  ON     8
       uuBe_9                 0.000000e+00    1         1  ON     9
      uuBe_10                 0.000000e+00    1         1  ON    10
      uuBe_11                 0.000000e+00    1         1  ON    11
      uuBe_12                 0.000000e+00    1         1  ON    12
      uuBe_13                 0.000000e+00    1         1  ON    13
      uuBe_14                 0.000000e+00    1         1  ON    14
      uuBe_15                 0.000000e+00    1         1  ON    15
      uuBe_16                 0.000000e+00    1         1  ON    16
      uuBe_17                 0.000000e+00    1         1  ON    17
      uuBe_18                 0.000000e+00    1         1  ON    18
      uuBe_19                 0.000000e+00    1         1  ON    19
      uuBe_20                 0.000000e+00    1         1  ON    20
      uuBe_21                 0.000000e+00    1         1  ON    21
      uuBe_22                 0.000000e+00    1         1  ON    22
      uuBe_23                 0.000000e+00    1         1  ON    23
      uuBe_24                 0.000000e+00    1         1  ON    24
      uuBe_25                 0.000000e+00    1         1  ON    25

     Ion: Be   electron-electron: u - d
      Number of parameters for e-e: 3, for e-I: 3
      Cutoff radius: 5

Expected 26 parameters, but found 0 in PolynomialFunctor3D.
         Name                        Value Type Recompute Use Index
      ------- ---------------------------- ---- --------- --- -----
       udBe_0                 0.000000e+00    1         1  ON     0
       udBe_1                 0.000000e+00    1         1  ON     1
       udBe_2                 0.000000e+00    1         1  ON     2
       udBe_3                 0.000000e+00    1         1  ON     3
       udBe_4                 0.000000e+00    1         1  ON     4
       udBe_5                 0.000000e+00    1         1  ON     5
       udBe_6                 0.000000e+00    1         1  ON     6
       udBe_7                 0.000000e+00    1         1  ON     7
       udBe_8                 0.000000e+00    1         1  ON     8
       udBe_9                 0.000000e+00    1         1  ON     9
      udBe_10                 0.000000e+00    1         1  ON    10
      udBe_11                 0.000000e+00    1         1  ON    11
      udBe_12                 0.000000e+00    1         1  ON    12
      udBe_13                 0.000000e+00    1         1  ON    13
      udBe_14                 0.000000e+00    1         1  ON    14
      udBe_15                 0.000000e+00    1         1  ON    15
      udBe_16                 0.000000e+00    1         1  ON    16
      udBe_17                 0.000000e+00    1         1  ON    17
      udBe_18                 0.000000e+00    1         1  ON    18
      udBe_19                 0.000000e+00    1         1  ON    19
      udBe_20                 0.000000e+00    1         1  ON    20
      udBe_21                 0.000000e+00    1         1  ON    21
      udBe_22                 0.000000e+00    1         1  ON    22
      udBe_23                 0.000000e+00    1         1  ON    23
      udBe_24                 0.000000e+00    1         1  ON    24
      udBe_25                 0.000000e+00    1         1  ON    25

  QMCHamiltonian::addOperator Kinetic to H, physical Hamiltonian 
  QMCHamiltonian::addOperator ElecElec to H, physical Hamiltonian 
QMCHamiltonian::addOperatorType added type coulomb named ElecElec
  QMCHamiltonian::addOperator IonIon to H, physical Hamiltonian 
QMCHamiltonian::addOperatorType added type coulomb named IonIon

  ECPotential builder for pseudopotential 

  Adding pseudopotential for H
   Linear grid  ri=0 rf=10 npts = 10001
    ECPComponentBuilder::buildSemiLocalAndLocal 
    Assuming Hartree unit
   Number of angular momentum channels 2
   Maximum angular momentum channel 1
   Creating a Linear Grid Rmax=1e-10
  Using global grid with delta = 0.001
   Making L=1 a local potential with a radial cutoff of 9.999
    Non-local pseudopotential parameters
    Maximum angular mementum = 0
    Number of non-local channels = 1
       l(0)=0
    Cutoff radius = 0.001
    Spherical grids and weights: 
                        1                 0                 0       0.08333333333
                       -1   1.224646799e-16                 0       0.08333333333
             0.4472135955       0.894427191                 0       0.08333333333
            -0.4472135955      0.7236067977      0.5257311121       0.08333333333
             0.4472135955      0.2763932023      0.8506508084       0.08333333333
            -0.4472135955     -0.2763932023      0.8506508084       0.08333333333
             0.4472135955     -0.7236067977      0.5257311121       0.08333333333
            -0.4472135955      -0.894427191   1.095357397e-16       0.08333333333
             0.4472135955     -0.7236067977     -0.5257311121       0.08333333333
            -0.4472135955     -0.2763932023     -0.8506508084       0.08333333333
             0.4472135955      0.2763932023     -0.8506508084       0.08333333333
            -0.4472135955      0.7236067977     -0.5257311121       0.08333333333
    Maximum cutoff radius 0.001

  Adding pseudopotential for Be
   Linear grid  ri=0 rf=10 npts = 10001
    ECPComponentBuilder::buildSemiLocalAndLocal 
    Assuming Hartree unit
   Number of angular momentum channels 2
   Maximum angular momentum channel 1
   Creating a Linear Grid Rmax=2.37
  Using global grid with delta = 0.001
   Making L=1 a local potential with a radial cutoff of 9.999
    Non-local pseudopotential parameters
    Maximum angular mementum = 0
    Number of non-local channels = 1
       l(0)=0
    Cutoff radius = 2.37
    Spherical grids and weights: 
                        1                 0                 0       0.08333333333
                       -1   1.224646799e-16                 0       0.08333333333
             0.4472135955       0.894427191                 0       0.08333333333
            -0.4472135955      0.7236067977      0.5257311121       0.08333333333
             0.4472135955      0.2763932023      0.8506508084       0.08333333333
            -0.4472135955     -0.2763932023      0.8506508084       0.08333333333
             0.4472135955     -0.7236067977      0.5257311121       0.08333333333
            -0.4472135955      -0.894427191   1.095357397e-16       0.08333333333
             0.4472135955     -0.7236067977     -0.5257311121       0.08333333333
            -0.4472135955     -0.2763932023     -0.8506508084       0.08333333333
             0.4472135955      0.2763932023     -0.8506508084       0.08333333333
            -0.4472135955      0.7236067977     -0.5257311121       0.08333333333
    Maximum cutoff radius 2.37
  QMCHamiltonian::addOperator LocalECP to H, physical Hamiltonian 

  Using NonLocalECP potential 
    Maximum grid on a sphere for NonLocalECPotential: 12
  QMCHamiltonian::addOperator NonLocalECP to H, physical Hamiltonian 
QMCHamiltonian::addOperatorType added type pseudo named PseudoPot

  QMCHamiltonian::add2WalkerProperty added
    5 to P::PropertyList 
    0 to P::Collectables 
    starting Index of the observables in P::PropertyList = 9
ParticleSetPool::randomize 1 ParticleSet.
<init source="ion0" target="e">
</init>
  Initialization Execution time = 0.7879 secs
=========================================================
 Summary of QMC systems 
=========================================================
ParticleSetPool has: 

  ParticleSet 'e' contains 4 particles :  u(2) d(2)

    u  8.9800814620e-01 -3.6005438550e-01  2.6301182689e-01
    u  6.2142756750e-01  7.0194201507e-01  2.8619735803e+00
    d  7.1790411484e-01  3.0698917195e-01 -6.2897085978e-01
    d  3.8401263486e-02 -7.7639298039e-01 -3.1397564624e+00

  Distance table for dissimilar particles (A-B):
    source: ion0  target: e
    Using structure-of-arrays (SoA) data layout
    Distance computations use open boundary conditions in 3D.

  Distance table for similar particles (A-A):
    source/target: e
    Using structure-of-arrays (SoA) data layout
    Distance computations use open boundary conditions in 3D.


  ParticleSet 'ion0' contains 3 particles :  Be(1) H(2)

    Be  0.0000000000e+00  0.0000000000e+00  0.0000000000e+00
    H  0.0000000000e+00  0.0000000000e+00  2.5065327300e+00
    H  0.0000000000e+00  0.0000000000e+00 -2.5065327300e+00

  Distance table for similar particles (A-A):
    source/target: ion0
    Using structure-of-arrays (SoA) data layout
    Distance computations use open boundary conditions in 3D.


  Hamiltonian h0
  Kinetic         Kinetic energy
  ElecElec        CoulombAB source=e

  IonIon          CoulombAA source/target ion0

  LocalECP        LocalECPotential: ion0
  NonLocalECP     NonLocalECPotential: ion0

Loop execution max-interations = 3

=========================================================
  Start QMCFixedSampleLinearOptimize
  File Root optJ123.s000 append = no 
=========================================================
  Skip QMCDriver::putQMCInfo 
  Resetting Properties of the walkers 1 x 14
  Adding 1 walkers to 0 existing sets
  Total number of walkers: 4.0000000000e+00
  Total weight: 4.0000000000e+00

=========================================================
  Start VMC
  File Root optJ123.s000 append = no 
=========================================================
Resetting walkers
  Using the current 1 walkers.
  Total number of walkers: 4.0000000000e+00
  Total weight: 4.0000000000e+00
  Resetting Properties of the walkers 1 x 14

<vmc function="put">
  qmc_counter=0  my_counter=0
  time step      = 1.5000000000e+00
  blocks         = 100
  steps          = 80
  substeps       = 2
  current        = 0
  target samples = 3.2000000000e+04
  walkers/mpi    = 1

  stepsbetweensamples = 1
  SpinMoves      = no
<parameter name="blocks" condition="int">100</parameter>
<parameter name="blocks_between_recompute" condition="int">0</parameter>
<parameter name="check_properties" condition="int">100</parameter>
<parameter name="checkproperties" condition="int">100</parameter>
<parameter name="current" condition="int">0</parameter>
<parameter name="dmcwalkersperthread" condition="real">8.0000000000e+03</parameter>
<parameter name="maxcpusecs" condition="real">3.6000000000e+05</parameter>
<parameter name="record_configs" condition="int">0</parameter>
<parameter name="record_walkers" condition="int">1</parameter>
<parameter name="recordconfigs" condition="int">0</parameter>
<parameter name="recordwalkers" condition="int">1</parameter>
<parameter name="rewind" condition="int">0</parameter>
<parameter name="samples" condition="real">3.2000000000e+04</parameter>
<parameter name="samplesperthread" condition="real">8.0000000000e+03</parameter>
<parameter name="spinmass" condition="double">1.0000000000e+00</parameter>
<parameter name="spinmoves" condition="string">no</parameter>
<parameter name="steps" condition="int">80</parameter>
<parameter name="stepsbetweensamples" condition="int">1</parameter>
<parameter name="store_configs" condition="int">0</parameter>
<parameter name="storeconfigs" condition="int">0</parameter>
<parameter name="sub_steps" condition="int">2</parameter>
<parameter name="substeps" condition="int">2</parameter>
<parameter name="tau" condition="au">1.5000000000e+00</parameter>
<parameter name="time_step" condition="au">1.5000000000e+00</parameter>
<parameter name="timestep" condition="au">1.5000000000e+00</parameter>
<parameter name="use_drift" condition="string">yes</parameter>
<parameter name="usedrift" condition="string">yes</parameter>
<parameter name="walkers" condition="int">1</parameter>
<parameter name="warmup_steps" condition="int">0</parameter>
<parameter name="warmupsteps" condition="int">0</parameter>
  DumpConfig==false Nothing (configurations, state) will be saved.
  Walker Samples are dumped every 1 steps.
</vmc>
  Set drift_modifier UNR parameter a = 1.0000000000e+00
  Adding a default LocalEnergyEstimator for the MainEstimator 
 Using QMCCostFunction::QMCCostFunction
  Set drift_modifier UNR parameter a = 1.0000000000e+00
  Adding a default LocalEnergyEstimator for the MainEstimator 
<optimization-report>
<vmc stage="main" blocks="100">
  Initial partition of walkers 0 1 

  Using Particle by Particle moves
  Walker moves with drift
  Total Sample Size   =32000
  Walker distribution on root = 0 1 
  Using Locality Approximation
===== Memory Usage after the buffer registration =====
Available memory on node 0, free + buffers : 92846 MB
Memory footprint by rank 0 on node 0       : 60 MB
==================================================
  Anonymous Buffer size per walker : 18208 Bytes.
MEMORY increase 0 MB VMC::resetRun
====================================================
  SimpleFixedNodeBranch::finalize after a VMC block
    QMC counter        = 0
    time step          = 1.5
    reference energy   = -2.2773
    reference variance = 0.00112234
====================================================
  Execution time = 4.7925e+00
</vmc>
<opt stage="setup">
  <log>
   Reading configurations from h5FileRoot optJ123.s000
  QMCCostFunction is created with 1 threads.
  Using Nonlocal PP in Opt: NonLocalECP
   Number of samples loaded to each thread : 8000 
  VMC Eavg = -2.2393e+00
  VMC Evar = 1.7135e-01
  Total weights = 3.2000e+04
  Execution time = 2.8390e+00
  </log>
</opt>
<opt stage="main" walkers="32000">
  <log>

*****************************************
Building overlap and Hamiltonian matrices
*****************************************

Among totally 144 optimized parameters, largest LM parameter change : 4.9222e-02 at parameter 11

******************************************************************************
Init Cost =  -1.9983e+00    New Cost =  -2.0014e+00  Delta Cost =  -3.0847e-03
******************************************************************************

The new set of parameters is valid. Updating the trial wave function!

*****************************************************************************
Applying the update for shift_i =   1.0000e-02     and shift_s =   2.5000e-01
*****************************************************************************
  Execution time = 1.6177e+01
  </log>
  <optVariables href="optJ123.s000.opt.xml">
  eBe_0                -2.631580e-01 1 1  ON 0
  eBe_1                -2.236638e-01 1 1  ON 1
  eBe_2                -2.165745e-01 1 1  ON 2
  eBe_3                -1.887192e-01 1 1  ON 3
  eBe_4                -1.531968e-01 1 1  ON 4
  eBe_5                -1.208340e-01 1 1  ON 5
  eBe_6                -8.263109e-02 1 1  ON 6
  eBe_7                -4.929076e-02 1 1  ON 7
  eBe_8                -2.162518e-02 1 1  ON 8
  eBe_9                -4.667131e-03 1 1  ON 9
   eH_0                -3.278851e-01 1 1  ON 10
   eH_1                -3.066646e-01 1 1  ON 11
   eH_2                -2.708591e-01 1 1  ON 12
   eH_3                -2.163899e-01 1 1  ON 13
   eH_4                -1.587977e-01 1 1  ON 14
   eH_5                -1.192923e-01 1 1  ON 15
   eH_6                -9.741469e-02 1 1  ON 16
   eH_7                -4.843229e-02 1 1  ON 17
   eH_8                -2.212907e-02 1 1  ON 18
   eH_9                -9.313956e-03 1 1  ON 19
   uu_0                 4.541776e-03 1 1  ON 20
   uu_1                 5.087615e-02 1 1  ON 21
   uu_2                 1.885887e-01 1 1  ON 22
   uu_3                 1.591906e-01 1 1  ON 23
   uu_4                 1.309676e-01 1 1  ON 24
   uu_5                 8.602127e-02 1 1  ON 25
   uu_6                 4.943891e-02 1 1  ON 26
   uu_7                 2.742083e-02 1 1  ON 27
   uu_8                 1.356927e-02 1 1  ON 28
   uu_9                 4.908810e-03 1 1  ON 29
   ud_0                 8.377845e-01 1 1  ON 30
   ud_1                 6.626499e-01 1 1  ON 31
   ud_2                 5.161637e-01 1 1  ON 32
   ud_3                 3.970138e-01 1 1  ON 33
   ud_4                 2.952344e-01 1 1  ON 34
   ud_5                 2.090842e-01 1 1  ON 35
   ud_6                 1.390828e-01 1 1  ON 36
   ud_7                 8.648339e-02 1 1  ON 37
   ud_8                 4.675653e-02 1 1  ON 38
   ud_9                 2.269058e-02 1 1  ON 39
 uuBe_0                -8.895294e-03 1 1  ON 40
 uuBe_1                -1.294169e-03 1 1  ON 41
 uuBe_2                -6.016141e-03 1 1  ON 42
 uuBe_3                 4.925332e-03 1 1  ON 43
 uuBe_4                 4.975752e-03 1 1  ON 44
 uuBe_5                 2.357251e-03 1 1  ON 45
 uuBe_6                 1.685501e-04 1 1  ON 46
 uuBe_7                -2.679206e-04 1 1  ON 47
 uuBe_8                 1.155561e-03 1 1  ON 48
 uuBe_9                 3.302038e-03 1 1  ON 49
uuBe_10                -1.843316e-03 1 1  ON 50
uuBe_11                 2.046245e-03 1 1  ON 51
uuBe_12                 1.029385e-03 1 1  ON 52
uuBe_13                -9.828510e-04 1 1  ON 53
uuBe_14                -1.885263e-03 1 1  ON 54
uuBe_15                 3.539016e-04 1 1  ON 55
uuBe_16                 5.011424e-03 1 1  ON 56
uuBe_17                 3.750133e-03 1 1  ON 57
uuBe_18                 3.787087e-04 1 1  ON 58
uuBe_19                -4.604393e-04 1 1  ON 59
uuBe_20                 9.209781e-04 1 1  ON 60
uuBe_21                -2.291629e-03 1 1  ON 61
uuBe_22                 4.528577e-04 1 1  ON 62
uuBe_23                 2.952798e-04 1 1  ON 63
uuBe_24                 1.684464e-03 1 1  ON 64
uuBe_25                -4.255677e-04 1 1  ON 65
 udBe_0                -1.146389e-02 1 1  ON 66
 udBe_1                -7.267014e-03 1 1  ON 67
 udBe_2                -1.165886e-02 1 1  ON 68
 udBe_3                 1.192459e-02 1 1  ON 69
 udBe_4                -1.022235e-02 1 1  ON 70
 udBe_5                -1.738900e-03 1 1  ON 71
 udBe_6                 1.475689e-02 1 1  ON 72
 udBe_7                 1.313761e-02 1 1  ON 73
 udBe_8                -1.386232e-02 1 1  ON 74
 udBe_9                 4.373637e-03 1 1  ON 75
udBe_10                -7.886394e-03 1 1  ON 76
udBe_11                 9.399057e-03 1 1  ON 77
udBe_12                -4.604753e-03 1 1  ON 78
udBe_13                -8.717548e-03 1 1  ON 79
udBe_14                 1.204518e-02 1 1  ON 80
udBe_15                -2.264813e-03 1 1  ON 81
udBe_16                 7.124327e-03 1 1  ON 82
udBe_17                 5.688184e-03 1 1  ON 83
udBe_18                 1.483575e-03 1 1  ON 84
udBe_19                -7.072141e-04 1 1  ON 85
udBe_20                 1.541695e-04 1 1  ON 86
udBe_21                -7.613883e-03 1 1  ON 87
udBe_22                 3.565264e-03 1 1  ON 88
udBe_23                 3.916246e-05 1 1  ON 89
udBe_24                 1.383523e-03 1 1  ON 90
udBe_25                -1.436106e-03 1 1  ON 91
  uuH_0                -9.110874e-03 1 1  ON 92
  uuH_1                -2.006656e-03 1 1  ON 93
  uuH_2                -3.877022e-03 1 1  ON 94
  uuH_3                -4.483221e-03 1 1  ON 95
  uuH_4                 8.541172e-03 1 1  ON 96
  uuH_5                -6.030179e-03 1 1  ON 97
  uuH_6                -2.805442e-03 1 1  ON 98
  uuH_7                -3.119964e-03 1 1  ON 99
  uuH_8                 3.196605e-04 1 1  ON 100
  uuH_9                -5.704153e-03 1 1  ON 101
 uuH_10                -4.406989e-03 1 1  ON 102
 uuH_11                -2.581546e-03 1 1  ON 103
 uuH_12                -2.137408e-03 1 1  ON 104
 uuH_13                 3.129963e-03 1 1  ON 105
 uuH_14                 1.564206e-02 1 1  ON 106
 uuH_15                 6.818872e-04 1 1  ON 107
 uuH_16                -1.426354e-03 1 1  ON 108
 uuH_17                -6.609972e-03 1 1  ON 109
 uuH_18                -2.793646e-03 1 1  ON 110
 uuH_19                -8.555123e-03 1 1  ON 111
 uuH_20                 3.214945e-03 1 1  ON 112
 uuH_21                 7.364724e-03 1 1  ON 113
 uuH_22                -1.967444e-02 1 1  ON 114
 uuH_23                 5.232955e-03 1 1  ON 115
 uuH_24                 1.615518e-02 1 1  ON 116
 uuH_25                 1.556422e-02 1 1  ON 117
  udH_0                -1.751556e-03 1 1  ON 118
  udH_1                -4.404602e-04 1 1  ON 119
  udH_2                 4.643085e-03 1 1  ON 120
  udH_3                -3.822761e-04 1 1  ON 121
  udH_4                -1.504861e-03 1 1  ON 122
  udH_5                 8.677294e-04 1 1  ON 123
  udH_6                -6.683557e-04 1 1  ON 124
  udH_7                -3.068899e-03 1 1  ON 125
  udH_8                 7.396948e-03 1 1  ON 126
  udH_9                 3.227407e-03 1 1  ON 127
 udH_10                 6.569790e-04 1 1  ON 128
 udH_11                -2.453495e-03 1 1  ON 129
 udH_12                -5.377912e-03 1 1  ON 130
 udH_13                -9.917389e-04 1 1  ON 131
 udH_14                 2.340402e-03 1 1  ON 132
 udH_15                 6.860870e-04 1 1  ON 133
 udH_16                -4.152839e-03 1 1  ON 134
 udH_17                -1.234754e-04 1 1  ON 135
 udH_18                 1.645823e-03 1 1  ON 136
 udH_19                 4.793228e-03 1 1  ON 137
 udH_20                 1.504403e-03 1 1  ON 138
 udH_21                -1.848902e-03 1 1  ON 139
 udH_22                -4.528819e-04 1 1  ON 140
 udH_23                 8.251292e-04 1 1  ON 141
 udH_24                 1.039281e-03 1 1  ON 142
 udH_25                -3.313305e-04 1 1  ON 143
  </optVariables>
   Restore the number of walkers to 1, removing 0 walkers.
</opt>
</optimization-report>
  QMC Execution time = 16.2 secs

=========================================================
  Start QMCFixedSampleLinearOptimize
  File Root optJ123.s001 append = no 
=========================================================
  Skip QMCDriver::putQMCInfo 
  Resetting Properties of the walkers 1 x 14

=========================================================
  Start VMC
  File Root optJ123.s001 append = no 
=========================================================
Using existing walkers 
  Resetting Properties of the walkers 1 x 14

<vmc function="put">
  qmc_counter=1  my_counter=0
  time step      = 1.5
  blocks         = 100
  steps          = 80
  substeps       = 2
  current        = 0
  target samples = 3.2e+04
  walkers/mpi    = 1

  stepsbetweensamples = 1
  SpinMoves      = no
<parameter name="blocks" condition="int">100</parameter>
<parameter name="blocks_between_recompute" condition="int">0</parameter>
<parameter name="check_properties" condition="int">100</parameter>
<parameter name="checkproperties" condition="int">100</parameter>
<parameter name="current" condition="int">0</parameter>
<parameter name="dmcwalkersperthread" condition="real">8000</parameter>
<parameter name="maxcpusecs" condition="real">3.6e+05</parameter>
<parameter name="record_configs" condition="int">0</parameter>
<parameter name="record_walkers" condition="int">1</parameter>
<parameter name="recordconfigs" condition="int">0</parameter>
<parameter name="recordwalkers" condition="int">1</parameter>
<parameter name="rewind" condition="int">0</parameter>
<parameter name="samples" condition="real">3.2e+04</parameter>
<parameter name="samplesperthread" condition="real">8000</parameter>
<parameter name="spinmass" condition="double">1</parameter>
<parameter name="spinmoves" condition="string">no</parameter>
<parameter name="steps" condition="int">80</parameter>
<parameter name="stepsbetweensamples" condition="int">1</parameter>
<parameter name="store_configs" condition="int">0</parameter>
<parameter name="storeconfigs" condition="int">0</parameter>
<parameter name="sub_steps" condition="int">2</parameter>
<parameter name="substeps" condition="int">2</parameter>
<parameter name="tau" condition="au">1.5</parameter>
<parameter name="time_step" condition="au">1.5</parameter>
<parameter name="timestep" condition="au">1.5</parameter>
<parameter name="use_drift" condition="string">yes</parameter>
<parameter name="usedrift" condition="string">yes</parameter>
<parameter name="walkers" condition="int">1</parameter>
<parameter name="warmup_steps" condition="int">0</parameter>
<parameter name="warmupsteps" condition="int">0</parameter>
  DumpConfig==false Nothing (configurations, state) will be saved.
  Walker Samples are dumped every 1 steps.
</vmc>
    Restarting, cummulative properties:
      energy     = -2.277
      variance   = 0
      r2accepted = 1e-10
      r2proposed = 1e-10
  Set drift_modifier UNR parameter a = 1
  Adding a default LocalEnergyEstimator for the MainEstimator 
 Using QMCCostFunction::QMCCostFunction
  Set drift_modifier UNR parameter a = 1.0000e+00
<optimization-report>
<vmc stage="main" blocks="100">
  Cannot make clones again. Use existing 1 clones
  Initial partition of walkers 0 1 

  Using Particle by Particle moves
  Walker moves with drift
  Total Sample Size   =32000
  Walker distribution on root = 0 1 
  Using Locality Approximation
===== Memory Usage after the buffer registration =====
Available memory on node 0, free + buffers : 92632 MB
Memory footprint by rank 0 on node 0       : 108 MB
==================================================
  Anonymous Buffer size per walker : 18208 Bytes.
MEMORY increase 0 MB VMC::resetRun
====================================================
  SimpleFixedNodeBranch::finalize after a VMC block
    QMC counter        = 1
    time step          = 1.5
    reference energy   = -2.25709
    reference variance = 0.00548336
====================================================
  Execution time = 4.6034e+00
</vmc>
<opt stage="setup">
  <log>
   Reading configurations from h5FileRoot optJ123.s001
  QMCCostFunction is created with 1 threads.
  Using Nonlocal PP in Opt: NonLocalECP
   Number of samples loaded to each thread : 8000 
  VMC Eavg = -2.2429e+00
  VMC Evar = 2.7023e-01
  Total weights = 3.2000e+04
  Execution time = 2.8581e+00
  </log>
</opt>
<opt stage="main" walkers="32000">
  <log>

*****************************************
Building overlap and Hamiltonian matrices
*****************************************

Among totally 144 optimized parameters, largest LM parameter change : 3.8714e-02 at parameter 106

******************************************************************************
Init Cost =  -1.9916e+00    New Cost =  -1.9998e+00  Delta Cost =  -8.2494e-03
******************************************************************************

The new set of parameters is valid. Updating the trial wave function!

*****************************************************************************
Applying the update for shift_i =   1.0000e-02     and shift_s =   6.2500e-02
*****************************************************************************
  Execution time = 1.5818e+01
  </log>
  <optVariables href="optJ123.s001.opt.xml">
  eBe_0                -2.704590e-01 1 1  ON 0
  eBe_1                -2.564024e-01 1 1  ON 1
  eBe_2                -2.420366e-01 1 1  ON 2
  eBe_3                -2.113146e-01 1 1  ON 3
  eBe_4                -1.712252e-01 1 1  ON 4
  eBe_5                -1.329811e-01 1 1  ON 5
  eBe_6                -9.251711e-02 1 1  ON 6
  eBe_7                -5.821013e-02 1 1  ON 7
  eBe_8                -3.274577e-02 1 1  ON 8
  eBe_9                -1.437573e-02 1 1  ON 9
   eH_0                -3.643203e-01 1 1  ON 10
   eH_1                -3.394622e-01 1 1  ON 11
   eH_2                -3.001899e-01 1 1  ON 12
   eH_3                -2.392892e-01 1 1  ON 13
   eH_4                -1.744973e-01 1 1  ON 14
   eH_5                -1.262272e-01 1 1  ON 15
   eH_6                -1.039145e-01 1 1  ON 16
   eH_7                -5.225879e-02 1 1  ON 17
   eH_8                -2.408615e-02 1 1  ON 18
   eH_9                -8.399955e-03 1 1  ON 19
   uu_0                 4.893320e-03 1 1  ON 20
   uu_1                 5.868511e-02 1 1  ON 21
   uu_2                 1.906694e-01 1 1  ON 22
   uu_3                 1.671855e-01 1 1  ON 23
   uu_4                 1.346255e-01 1 1  ON 24
   uu_5                 9.898437e-02 1 1  ON 25
   uu_6                 6.529155e-02 1 1  ON 26
   uu_7                 3.738956e-02 1 1  ON 27
   uu_8                 2.033574e-02 1 1  ON 28
   uu_9                 8.278446e-03 1 1  ON 29
   ud_0                 8.645239e-01 1 1  ON 30
   ud_1                 6.861405e-01 1 1  ON 31
   ud_2                 5.421213e-01 1 1  ON 32
   ud_3                 4.223948e-01 1 1  ON 33
   ud_4                 3.176896e-01 1 1  ON 34
   ud_5                 2.302382e-01 1 1  ON 35
   ud_6                 1.576775e-01 1 1  ON 36
   ud_7                 1.005998e-01 1 1  ON 37
   ud_8                 5.496993e-02 1 1  ON 38
   ud_9                 2.733118e-02 1 1  ON 39
 uuBe_0                -7.971458e-03 1 1  ON 40
 uuBe_1                 1.375075e-03 1 1  ON 41
 uuBe_2                 3.985494e-03 1 1  ON 42
 uuBe_3                -1.479782e-03 1 1  ON 43
 uuBe_4                 7.631878e-03 1 1  ON 44
 uuBe_5                 5.315463e-03 1 1  ON 45
 uuBe_6                -5.770000e-03 1 1  ON 46
 uuBe_7                -5.074159e-05 1 1  ON 47
 uuBe_8                 1.018313e-03 1 1  ON 48
 uuBe_9                 3.264358e-04 1 1  ON 49
uuBe_10                 3.283144e-03 1 1  ON 50
uuBe_11                 3.308931e-03 1 1  ON 51
uuBe_12                 1.607648e-03 1 1  ON 52
uuBe_13                -2.036535e-03 1 1  ON 53
uuBe_14                -3.131374e-03 1 1  ON 54
uuBe_15                 5.100532e-04 1 1  ON 55
uuBe_16                 2.982346e-03 1 1  ON 56
uuBe_17                 1.069699e-03 1 1  ON 57
uuBe_18                -2.341265e-03 1 1  ON 58
uuBe_19                 1.411266e-03 1 1  ON 59
uuBe_20                -1.569749e-03 1 1  ON 60
uuBe_21                -5.695857e-03 1 1  ON 61
uuBe_22                 8.380438e-04 1 1  ON 62
uuBe_23                 7.790302e-03 1 1  ON 63
uuBe_24                 3.877359e-03 1 1  ON 64
uuBe_25                -9.477007e-04 1 1  ON 65
 udBe_0                -8.195049e-03 1 1  ON 66
 udBe_1                -2.665009e-04 1 1  ON 67
 udBe_2                -1.640127e-02 1 1  ON 68
 udBe_3                 7.214213e-03 1 1  ON 69
 udBe_4                -1.282571e-02 1 1  ON 70
 udBe_5                -1.102464e-03 1 1  ON 71
 udBe_6                 1.133714e-02 1 1  ON 72
 udBe_7                 2.263119e-02 1 1  ON 73
 udBe_8                -1.360189e-02 1 1  ON 74
 udBe_9                 2.158779e-03 1 1  ON 75
udBe_10                -1.541698e-02 1 1  ON 76
udBe_11                 1.392529e-02 1 1  ON 77
udBe_12                -8.585186e-03 1 1  ON 78
udBe_13                -1.397843e-02 1 1  ON 79
udBe_14                 1.225812e-02 1 1  ON 80
udBe_15                -1.448677e-03 1 1  ON 81
udBe_16                 1.160117e-02 1 1  ON 82
udBe_17                 3.252932e-03 1 1  ON 83
udBe_18                -2.945827e-04 1 1  ON 84
udBe_19                 4.158063e-03 1 1  ON 85
udBe_20                 4.566507e-03 1 1  ON 86
udBe_21                -1.075731e-02 1 1  ON 87
udBe_22                 2.937407e-03 1 1  ON 88
udBe_23                -1.535048e-03 1 1  ON 89
udBe_24                 4.850634e-03 1 1  ON 90
udBe_25                -1.856195e-03 1 1  ON 91
  uuH_0                -6.338442e-03 1 1  ON 92
  uuH_1                 2.413773e-03 1 1  ON 93
  uuH_2                -3.562270e-03 1 1  ON 94
  uuH_3                -7.331490e-03 1 1  ON 95
  uuH_4                -1.490841e-03 1 1  ON 96
  uuH_5                 5.774262e-03 1 1  ON 97
  uuH_6                 1.279839e-03 1 1  ON 98
  uuH_7                 7.008991e-05 1 1  ON 99
  uuH_8                -4.612876e-03 1 1  ON 100
  uuH_9                 2.808699e-03 1 1  ON 101
 uuH_10                 1.225518e-02 1 1  ON 102
 uuH_11                 1.084822e-03 1 1  ON 103
 uuH_12                -8.755538e-03 1 1  ON 104
 uuH_13                -8.509804e-03 1 1  ON 105
 uuH_14                -2.307218e-02 1 1  ON 106
 uuH_15                 1.647513e-02 1 1  ON 107
 uuH_16                 6.918279e-03 1 1  ON 108
 uuH_17                 2.021677e-02 1 1  ON 109
 uuH_18                 1.608827e-02 1 1  ON 110
 uuH_19                 7.217284e-03 1 1  ON 111
 uuH_20                 3.952691e-03 1 1  ON 112
 uuH_21                 1.301761e-02 1 1  ON 113
 uuH_22                -3.468075e-03 1 1  ON 114
 uuH_23                -9.162357e-03 1 1  ON 115
 uuH_24                -1.249332e-02 1 1  ON 116
 uuH_25                -4.047927e-03 1 1  ON 117
  udH_0                -3.212411e-03 1 1  ON 118
  udH_1                -9.537024e-05 1 1  ON 119
  udH_2                 6.555331e-03 1 1  ON 120
  udH_3                -1.376180e-04 1 1  ON 121
  udH_4                -3.536918e-03 1 1  ON 122
  udH_5                 1.169386e-03 1 1  ON 123
  udH_6                 1.608910e-03 1 1  ON 124
  udH_7                -3.210541e-03 1 1  ON 125
  udH_8                 1.173584e-02 1 1  ON 126
  udH_9                 3.698730e-03 1 1  ON 127
 udH_10                -6.597834e-04 1 1  ON 128
 udH_11                -2.818834e-03 1 1  ON 129
 udH_12                -1.004985e-02 1 1  ON 130
 udH_13                -2.883542e-03 1 1  ON 131
 udH_14                 4.887744e-03 1 1  ON 132
 udH_15                 1.152373e-03 1 1  ON 133
 udH_16                -5.543999e-03 1 1  ON 134
 udH_17                -1.139311e-04 1 1  ON 135
 udH_18                 3.059202e-03 1 1  ON 136
 udH_19                 8.557077e-03 1 1  ON 137
 udH_20                 4.431250e-03 1 1  ON 138
 udH_21                -4.147858e-03 1 1  ON 139
 udH_22                -6.757373e-04 1 1  ON 140
 udH_23                -9.002075e-04 1 1  ON 141
 udH_24                 2.535564e-03 1 1  ON 142
 udH_25                -6.188446e-04 1 1  ON 143
  </optVariables>
   Restore the number of walkers to 1, removing 0 walkers.
</opt>
</optimization-report>
  QMC Execution time = 15.84 secs

=========================================================
  Start QMCFixedSampleLinearOptimize
  File Root optJ123.s002 append = no 
=========================================================
  Skip QMCDriver::putQMCInfo 
  Resetting Properties of the walkers 1 x 14

=========================================================
  Start VMC
  File Root optJ123.s002 append = no 
=========================================================
Using existing walkers 
  Resetting Properties of the walkers 1 x 14

<vmc function="put">
  qmc_counter=2  my_counter=0
  time step      = 1.5
  blocks         = 100
  steps          = 80
  substeps       = 2
  current        = 0
  target samples = 3.2e+04
  walkers/mpi    = 1

  stepsbetweensamples = 1
  SpinMoves      = no
<parameter name="blocks" condition="int">100</parameter>
<parameter name="blocks_between_recompute" condition="int">0</parameter>
<parameter name="check_properties" condition="int">100</parameter>
<parameter name="checkproperties" condition="int">100</parameter>
<parameter name="current" condition="int">0</parameter>
<parameter name="dmcwalkersperthread" condition="real">8000</parameter>
<parameter name="maxcpusecs" condition="real">3.6e+05</parameter>
<parameter name="record_configs" condition="int">0</parameter>
<parameter name="record_walkers" condition="int">1</parameter>
<parameter name="recordconfigs" condition="int">0</parameter>
<parameter name="recordwalkers" condition="int">1</parameter>
<parameter name="rewind" condition="int">0</parameter>
<parameter name="samples" condition="real">3.2e+04</parameter>
<parameter name="samplesperthread" condition="real">8000</parameter>
<parameter name="spinmass" condition="double">1</parameter>
<parameter name="spinmoves" condition="string">no</parameter>
<parameter name="steps" condition="int">80</parameter>
<parameter name="stepsbetweensamples" condition="int">1</parameter>
<parameter name="store_configs" condition="int">0</parameter>
<parameter name="storeconfigs" condition="int">0</parameter>
<parameter name="sub_steps" condition="int">2</parameter>
<parameter name="substeps" condition="int">2</parameter>
<parameter name="tau" condition="au">1.5</parameter>
<parameter name="time_step" condition="au">1.5</parameter>
<parameter name="timestep" condition="au">1.5</parameter>
<parameter name="use_drift" condition="string">yes</parameter>
<parameter name="usedrift" condition="string">yes</parameter>
<parameter name="walkers" condition="int">1</parameter>
<parameter name="warmup_steps" condition="int">0</parameter>
<parameter name="warmupsteps" condition="int">0</parameter>
  DumpConfig==false Nothing (configurations, state) will be saved.
  Walker Samples are dumped every 1 steps.
</vmc>
    Restarting, cummulative properties:
      energy     = -2.267
      variance   = 0
      r2accepted = 1e-10
      r2proposed = 1e-10
  Set drift_modifier UNR parameter a = 1
  Adding a default LocalEnergyEstimator for the MainEstimator 
 Using QMCCostFunction::QMCCostFunction
  Set drift_modifier UNR parameter a = 1.0000e+00
<optimization-report>
<vmc stage="main" blocks="100">
  Cannot make clones again. Use existing 1 clones
  Initial partition of walkers 0 1 

  Using Particle by Particle moves
  Walker moves with drift
  Total Sample Size   =32000
  Walker distribution on root = 0 1 
  Using Locality Approximation
===== Memory Usage after the buffer registration =====
Available memory on node 0, free + buffers : 92601 MB
Memory footprint by rank 0 on node 0       : 116 MB
==================================================
  Anonymous Buffer size per walker : 18208 Bytes.
MEMORY increase 0 MB VMC::resetRun
====================================================
  SimpleFixedNodeBranch::finalize after a VMC block
    QMC counter        = 2
    time step          = 1.5
    reference energy   = -2.26602
    reference variance = 0.00387368
====================================================
  Execution time = 4.4728e+00
</vmc>
<opt stage="setup">
  <log>
   Reading configurations from h5FileRoot optJ123.s002
  QMCCostFunction is created with 1 threads.
  Using Nonlocal PP in Opt: NonLocalECP
   Number of samples loaded to each thread : 8000 
  VMC Eavg = -2.2386e+00
  VMC Evar = 3.7067e-01
  Total weights = 3.2000e+04
  Execution time = 2.8741e+00
  </log>
</opt>
<opt stage="main" walkers="32000">
  <log>

*****************************************
Building overlap and Hamiltonian matrices
*****************************************

Among totally 144 optimized parameters, largest LM parameter change : 3.8101e-02 at parameter 85

******************************************************************************
Init Cost =  -1.9777e+00    New Cost =  -1.9850e+00  Delta Cost =  -7.3802e-03
******************************************************************************

The new set of parameters is valid. Updating the trial wave function!

*****************************************************************************
Applying the update for shift_i =   1.0000e-02     and shift_s =   1.5625e-02
*****************************************************************************
  Execution time = 1.5696e+01
  </log>
  <optVariables href="optJ123.s002.opt.xml">
  eBe_0                -2.945884e-01 1 1  ON 0
  eBe_1                -2.632155e-01 1 1  ON 1
  eBe_2                -2.415046e-01 1 1  ON 2
  eBe_3                -2.067287e-01 1 1  ON 3
  eBe_4                -1.697011e-01 1 1  ON 4
  eBe_5                -1.352906e-01 1 1  ON 5
  eBe_6                -9.116802e-02 1 1  ON 6
  eBe_7                -5.751339e-02 1 1  ON 7
  eBe_8                -3.321064e-02 1 1  ON 8
  eBe_9                -1.536682e-02 1 1  ON 9
   eH_0                -3.850682e-01 1 1  ON 10
   eH_1                -3.538204e-01 1 1  ON 11
   eH_2                -3.110821e-01 1 1  ON 12
   eH_3                -2.512386e-01 1 1  ON 13
   eH_4                -1.872001e-01 1 1  ON 14
   eH_5                -1.389184e-01 1 1  ON 15
   eH_6                -1.118617e-01 1 1  ON 16
   eH_7                -5.924255e-02 1 1  ON 17
   eH_8                -2.844858e-02 1 1  ON 18
   eH_9                -1.032799e-02 1 1  ON 19
   uu_0                 7.436666e-03 1 1  ON 20
   uu_1                 8.173942e-02 1 1  ON 21
   uu_2                 2.086377e-01 1 1  ON 22
   uu_3                 1.953528e-01 1 1  ON 23
   uu_4                 1.573701e-01 1 1  ON 24
   uu_5                 1.152558e-01 1 1  ON 25
   uu_6                 7.045079e-02 1 1  ON 26
   uu_7                 4.052681e-02 1 1  ON 27
   uu_8                 1.973968e-02 1 1  ON 28
   uu_9                 9.149833e-03 1 1  ON 29
   ud_0                 8.905907e-01 1 1  ON 30
   ud_1                 7.111972e-01 1 1  ON 31
   ud_2                 5.639187e-01 1 1  ON 32
   ud_3                 4.391702e-01 1 1  ON 33
   ud_4                 3.318686e-01 1 1  ON 34
   ud_5                 2.417022e-01 1 1  ON 35
   ud_6                 1.656877e-01 1 1  ON 36
   ud_7                 1.063104e-01 1 1  ON 37
   ud_8                 5.786462e-02 1 1  ON 38
   ud_9                 2.857082e-02 1 1  ON 39
 uuBe_0                -1.644494e-02 1 1  ON 40
 uuBe_1                 1.373995e-02 1 1  ON 41
 uuBe_2                -1.131927e-02 1 1  ON 42
 uuBe_3                 2.996085e-02 1 1  ON 43
 uuBe_4                 3.843049e-03 1 1  ON 44
 uuBe_5                -1.137353e-02 1 1  ON 45
 uuBe_6                 3.060604e-02 1 1  ON 46
 uuBe_7                 1.304835e-02 1 1  ON 47
 uuBe_8                -1.906107e-02 1 1  ON 48
 uuBe_9                 4.893952e-03 1 1  ON 49
uuBe_10                 1.029232e-02 1 1  ON 50
uuBe_11                -2.733779e-03 1 1  ON 51
uuBe_12                 2.596249e-03 1 1  ON 52
uuBe_13                -2.364390e-03 1 1  ON 53
uuBe_14                 3.802988e-03 1 1  ON 54
uuBe_15                -3.332231e-05 1 1  ON 55
uuBe_16                -1.129219e-02 1 1  ON 56
uuBe_17                 8.316958e-03 1 1  ON 57
uuBe_18                 5.264639e-03 1 1  ON 58
uuBe_19                 6.899522e-03 1 1  ON 59
uuBe_20                -1.602968e-02 1 1  ON 60
uuBe_21                 2.435339e-03 1 1  ON 61
uuBe_22                -3.506116e-03 1 1  ON 62
uuBe_23                 1.252894e-02 1 1  ON 63
uuBe_24                -6.604683e-03 1 1  ON 64
uuBe_25                 2.421830e-03 1 1  ON 65
 udBe_0                 1.237186e-03 1 1  ON 66
 udBe_1                 9.825371e-03 1 1  ON 67
 udBe_2                -3.080113e-02 1 1  ON 68
 udBe_3                 1.405162e-04 1 1  ON 69
 udBe_4                -1.786133e-02 1 1  ON 70
 udBe_5                -1.741884e-03 1 1  ON 71
 udBe_6                 1.236561e-02 1 1  ON 72
 udBe_7                 3.123121e-02 1 1  ON 73
 udBe_8                -3.512660e-02 1 1  ON 74
 udBe_9                -9.981927e-03 1 1  ON 75
udBe_10                -1.880007e-02 1 1  ON 76
udBe_11                 2.287850e-02 1 1  ON 77
udBe_12                -2.339498e-02 1 1  ON 78
udBe_13                -1.062818e-02 1 1  ON 79
udBe_14                 2.600610e-02 1 1  ON 80
udBe_15                 1.035311e-03 1 1  ON 81
udBe_16                 1.595538e-02 1 1  ON 82
udBe_17                -4.817347e-04 1 1  ON 83
udBe_18                 1.351434e-02 1 1  ON 84
udBe_19                 4.225872e-02 1 1  ON 85
udBe_20                 1.167791e-02 1 1  ON 86
udBe_21                -3.399247e-02 1 1  ON 87
udBe_22                -6.652867e-03 1 1  ON 88
udBe_23                -9.286244e-03 1 1  ON 89
udBe_24                 1.814168e-02 1 1  ON 90
udBe_25                 6.550235e-04 1 1  ON 91
  uuH_0                -1.127683e-02 1 1  ON 92
  uuH_1                 1.397599e-03 1 1  ON 93
  uuH_2                -8.135981e-03 1 1  ON 94
  uuH_3                -1.068328e-02 1 1  ON 95
  uuH_4                 2.662779e-02 1 1  ON 96
  uuH_5                 8.861991e-03 1 1  ON 97
  uuH_6                 1.639191e-03 1 1  ON 98
  uuH_7                 6.582770e-04 1 1  ON 99
  uuH_8                 1.133228e-03 1 1  ON 100
  uuH_9                -3.683009e-03 1 1  ON 101
 uuH_10                 9.537108e-03 1 1  ON 102
 uuH_11                 4.654745e-03 1 1  ON 103
 uuH_12                -8.797176e-03 1 1  ON 104
 uuH_13                -1.286371e-02 1 1  ON 105
 uuH_14                -1.811155e-02 1 1  ON 106
 uuH_15                 1.545293e-02 1 1  ON 107
 uuH_16                 6.909782e-03 1 1  ON 108
 uuH_17                 2.168942e-02 1 1  ON 109
 uuH_18                 2.107057e-02 1 1  ON 110
 uuH_19                 1.384918e-02 1 1  ON 111
 uuH_20                 9.305031e-03 1 1  ON 112
 uuH_21                 1.924615e-02 1 1  ON 113
 uuH_22                -1.467634e-02 1 1  ON 114
 uuH_23                -6.710772e-03 1 1  ON 115
 uuH_24                -1.928612e-02 1 1  ON 116
 uuH_25                 6.603568e-03 1 1  ON 117
  udH_0                -4.620624e-03 1 1  ON 118
  udH_1                -8.431309e-04 1 1  ON 119
  udH_2                 9.237401e-03 1 1  ON 120
  udH_3                 7.778186e-04 1 1  ON 121
  udH_4                -3.122712e-03 1 1  ON 122
  udH_5                 1.157126e-03 1 1  ON 123
  udH_6                 1.789838e-03 1 1  ON 124
  udH_7                -2.254037e-03 1 1  ON 125
  udH_8                 1.432762e-02 1 1  ON 126
  udH_9                 4.493464e-03 1 1  ON 127
 udH_10                 9.960781e-04 1 1  ON 128
 udH_11                -5.095376e-03 1 1  ON 129
 udH_12                -1.116494e-02 1 1  ON 130
 udH_13                -3.877403e-03 1 1  ON 131
 udH_14                 6.334122e-03 1 1  ON 132
 udH_15                 1.071000e-03 1 1  ON 133
 udH_16                -7.540304e-03 1 1  ON 134
 udH_17                 1.237561e-03 1 1  ON 135
 udH_18                 2.510789e-03 1 1  ON 136
 udH_19                 1.092552e-02 1 1  ON 137
 udH_20                 4.102941e-03 1 1  ON 138
 udH_21                -5.422270e-03 1 1  ON 139
 udH_22                -9.448813e-04 1 1  ON 140
 udH_23                 3.865298e-04 1 1  ON 141
 udH_24                 3.108675e-03 1 1  ON 142
 udH_25                -6.363066e-04 1 1  ON 143
  </optVariables>
   Restore the number of walkers to 1, removing 0 walkers.
</opt>
</optimization-report>
  QMC Execution time = 15.72 secs
  Total Execution time = 47.85 secs

=========================================================
  A new xml input file : optJ123.s002.cont.xml
