  Input file(s): gs_qmc.in.xml 

=====================================================
                    QMCPACK 3.9.9

       (c) Copyright 2003-  QMCPACK developers

                    Please cite:
 J. Kim et al. J. Phys. Cond. Mat. 30 195901 (2018)
      https://doi.org/10.1088/1361-648X/aab9c3

  Git branch: develop
  Last git commit: 840aa1bcc0af4a7c94bd47fbcddb8f68a41f5fe9
  Last git commit date: Fri Jul 24 15:45:02 2020 -0400
  Last git commit subject: Merge pull request #2601 from jtkrogel/ed_fix
=====================================================
  Global options 

  Total number of MPI ranks = 2
  Number of MPI groups      = 1
  MPI group ID              = 0
  Number of ranks in group  = 2
  MPI ranks per node        = 2
  OMP 1st level threads     = 4
  OMP nested threading disabled or only 1 thread on the 2nd level

  Precision used in this calculation, see definitions in the manual:
  Base precision      = double
  Full precision      = double

  Structure-of-arrays (SoA) optimization enabled

  Input XML = gs_qmc.in.xml

  Project = gs_qmc
  date    = 2020-08-05 15:54:45 EDT
  host    = Haihan

 Random Number
 -------------
  Offset for the random number seeds based on time: 645

  Range of prime numbers to use as seeds over processors and threads = 4801-4903


 Lattice
 -------
  Lattice is not specified for the Open BC. Add a huge box.
  Simulation cell radius   = 5000000000.000000 bohr
  Wigner-Seitz cell radius = 5000000000.000000 bohr

 Particle Set 
 ------------
  Name: ion0
  Initializing the lattice by the global supercell
  All the species have the same mass 1.000000
  Particle set size: 3

 Particle Set 
 ------------
  Name: e
  Initializing the lattice by the global supercell
  All the species have the same mass 1.000000
  Particle set size: 4

 Wavefunction setup: 
 ------------------- 
  Name: psi0
  LCAO: SoaAtomicBasisSet<MultiQuintic,1>
Reading BasisSet from HDF5 file:../scf/scf.h5
<input node="atomicBasisSet" name="gaussian" expandYlm="pyscf" angular="spherical" elementType="Be" normalized="no" type="Numerical" expM="0" />
  AO BasisSet for Be
   Spherical Harmonics contain (-1)^m factor
   Angular momentum m expanded as -l, ... ,l, with the exception of L=1 (1,-1,0)
   Grid is created by the input paremters in h5
    Using log grid ri = 0.000001 rf = 100.000000 npts = 1001
   R(n,l,m,s) 0 0 0 0
   R(n,l,m,s) 1 0 0 0
   R(n,l,m,s) 2 0 0 0
   R(n,l,m,s) 3 0 0 0
   R(n,l,m,s) 4 1 0 0
   R(n,l,m,s) 5 1 0 0
   R(n,l,m,s) 6 1 0 0
   R(n,l,m,s) 7 1 0 0
   R(n,l,m,s) 8 2 0 0
   R(n,l,m,s) 9 2 0 0
   R(n,l,m,s) 10 2 0 0
   R(n,l,m,s) 11 3 0 0
   R(n,l,m,s) 12 3 0 0
Expanding Ylm as L=1 as (1,-1,0) and L>1 as -l,-l+1,...,l-1,l
   Adding 1 spherical orbitals
   Adding 1 spherical orbitals
   Adding 1 spherical orbitals
   Adding 1 spherical orbitals
   Adding 3 spherical orbitals
   Adding 3 spherical orbitals
   Adding 3 spherical orbitals
   Adding 3 spherical orbitals
   Adding 5 spherical orbitals
   Adding 5 spherical orbitals
   Adding 5 spherical orbitals
   Adding 7 spherical orbitals
   Adding 7 spherical orbitals
  Setting cutoff radius 226968848850.468567

   Maximum Angular Momentum  = 3
   Number of Radial functors = 13
   Basis size                = 45

<input node="atomicBasisSet" name="gaussian" expandYlm="pyscf" angular="spherical" elementType="H" normalized="no" type="Numerical" expM="0" />
  AO BasisSet for H
   Spherical Harmonics contain (-1)^m factor
   Angular momentum m expanded as -l, ... ,l, with the exception of L=1 (1,-1,0)
   Grid is created by the input paremters in h5
    Using log grid ri = 0.000001 rf = 100.000000 npts = 1001
   R(n,l,m,s) 0 0 0 0
   R(n,l,m,s) 1 0 0 0
   R(n,l,m,s) 2 0 0 0
   R(n,l,m,s) 3 0 0 0
   R(n,l,m,s) 4 1 0 0
   R(n,l,m,s) 5 1 0 0
   R(n,l,m,s) 6 1 0 0
   R(n,l,m,s) 7 2 0 0
   R(n,l,m,s) 8 2 0 0
Expanding Ylm as L=1 as (1,-1,0) and L>1 as -l,-l+1,...,l-1,l
   Adding 1 spherical orbitals
   Adding 1 spherical orbitals
   Adding 1 spherical orbitals
   Adding 1 spherical orbitals
   Adding 3 spherical orbitals
   Adding 3 spherical orbitals
   Adding 3 spherical orbitals
   Adding 5 spherical orbitals
   Adding 5 spherical orbitals
  Setting cutoff radius 128044595.777637

   Maximum Angular Momentum  = 2
   Number of Radial functors = 9
   Basis size                = 23

  Created SPOSet builder named 'LCAOBSet' of type molecularorbital
Reuse SPOSetBuilder "LCAOBSet" type MolecularOrbital
  Building SPOSet '' with '' basis set.
Reuse SPOSetBuilder "LCAOBSet" type MolecularOrbital
  Building SPOSet '' with '' basis set.
  Creating a determinant updet group=0 sposet=updet
  Reusing a SPO set updet
  Setting delay_rank by default!
  Using rank-1 Sherman-Morrison Fahy update (SM1)
  Using DiracDeterminant with DelayedUpdate engine

  Creating a determinant downdet group=1 sposet=downdet
  Reusing a SPO set downdet
  Setting delay_rank by default!
  Using rank-1 Sherman-Morrison Fahy update (SM1)
  Using DiracDeterminant with DelayedUpdate engine

  Added a fermionic WaveFunctionComponent SlaterDet

   Jastrow
   -------
    Name: J1   Type: One-Body   Function: bspline

    Radial function for element: H
     Number of parameters: 10
     Cusp: 0.000000
     Cutoff radius: 5.000000

     Name                        Value Type Recompute Use Index
     ---- ---------------------------- ---- --------- --- -----
     eH_0                -4.078236e-01    1         1  ON     0
     eH_1                -3.711202e-01    1         1  ON     1
     eH_2                -3.299003e-01    1         1  ON     2
     eH_3                -2.753661e-01    1         1  ON     3
     eH_4                -2.154229e-01    1         1  ON     4
     eH_5                -1.659130e-01    1         1  ON     5
     eH_6                -1.346209e-01    1         1  ON     6
     eH_7                -7.861377e-02    1         1  ON     7
     eH_8                -4.458009e-02    1         1  ON     8
     eH_9                -1.516953e-02    1         1  ON     9

    Radial function for element: Be
     Number of parameters: 10
     Cusp: 0
     Cutoff radius: 5

      Name                        Value Type Recompute Use Index
     ----- ---------------------------- ---- --------- --- -----
     eBe_0                -3.740716e-01    1         1  ON     0
     eBe_1                -2.931782e-01    1         1  ON     1
     eBe_2                -2.392348e-01    1         1  ON     2
     eBe_3                -2.091165e-01    1         1  ON     3
     eBe_4                -1.749922e-01    1         1  ON     4
     eBe_5                -1.379066e-01    1         1  ON     5
     eBe_6                -9.421992e-02    1         1  ON     6
     eBe_7                -5.906794e-02    1         1  ON     7
     eBe_8                -2.614737e-02    1         1  ON     8
     eBe_9                -1.113730e-02    1         1  ON     9


   Jastrow
   -------
    Name: J2   Type: Two-Body   Function: bspline

    Radial function for species: u - u
     Number of parameters: 10
     Cusp: -0.25
     Cutoff radius: 5

     Name                        Value Type Recompute Use Index
     ---- ---------------------------- ---- --------- --- -----
     uu_0                 2.647426e-02    1         1  ON     0
     uu_1                 2.593873e-01    1         1  ON     1
     uu_2                 3.361405e-01    1         1  ON     2
     uu_3                 2.254765e-01    1         1  ON     3
     uu_4                 1.750177e-01    1         1  ON     4
     uu_5                 1.187394e-01    1         1  ON     5
     uu_6                 7.608378e-02    1         1  ON     6
     uu_7                 4.640002e-02    1         1  ON     7
     uu_8                 2.427147e-02    1         1  ON     8
     uu_9                 1.162297e-02    1         1  ON     9

    Radial function for species: u - d
     Number of parameters: 10
     Cusp: -0.5
     Cutoff radius: 5

     Name                        Value Type Recompute Use Index
     ---- ---------------------------- ---- --------- --- -----
     ud_0                 9.375866e-01    1         1  ON     0
     ud_1                 7.407347e-01    1         1  ON     1
     ud_2                 5.821146e-01    1         1  ON     2
     ud_3                 4.498523e-01    1         1  ON     3
     ud_4                 3.388689e-01    1         1  ON     4
     ud_5                 2.458598e-01    1         1  ON     5
     ud_6                 1.695598e-01    1         1  ON     6
     ud_7                 1.086032e-01    1         1  ON     7
     ud_8                 6.214322e-02    1         1  ON     8
     ud_9                 3.204418e-02    1         1  ON     9


   Jastrow
   -------
    Name: J3   Type: eeI   Function: polynomial

     Ion: H   electron-electron: u - u
      Number of parameters for e-e: 3, for e-I: 3
      Cutoff radius: 5

        Name                        Value Type Recompute Use Index
      ------ ---------------------------- ---- --------- --- -----
       uuH_0                -1.989623e-03    1         1  ON     0
       uuH_1                 3.157584e-03    1         1  ON     1
       uuH_2                -3.093675e-03    1         1  ON     2
       uuH_3                 7.837131e-04    1         1  ON     3
       uuH_4                 2.220638e-03    1         1  ON     4
       uuH_5                 2.454437e-03    1         1  ON     5
       uuH_6                -1.920030e-03    1         1  ON     6
       uuH_7                -5.088678e-04    1         1  ON     7
       uuH_8                 4.091770e-03    1         1  ON     8
       uuH_9                -2.151746e-03    1         1  ON     9
      uuH_10                 1.867800e-03    1         1  ON    10
      uuH_11                 6.006290e-04    1         1  ON    11
      uuH_12                -6.899754e-03    1         1  ON    12
      uuH_13                -2.930221e-03    1         1  ON    13
      uuH_14                 4.906216e-04    1         1  ON    14
      uuH_15                 3.423472e-03    1         1  ON    15
      uuH_16                 2.813110e-04    1         1  ON    16
      uuH_17                 5.460979e-04    1         1  ON    17
      uuH_18                -1.141071e-03    1         1  ON    18
      uuH_19                -1.197702e-02    1         1  ON    19
      uuH_20                 3.358516e-03    1         1  ON    20
      uuH_21                 7.386615e-03    1         1  ON    21
      uuH_22                -3.234198e-03    1         1  ON    22
      uuH_23                 4.388266e-03    1         1  ON    23
      uuH_24                 3.597465e-03    1         1  ON    24
      uuH_25                 5.293485e-03    1         1  ON    25

     Ion: H   electron-electron: u - d
      Number of parameters for e-e: 3, for e-I: 3
      Cutoff radius: 5

        Name                        Value Type Recompute Use Index
      ------ ---------------------------- ---- --------- --- -----
       udH_0                -2.327406e-03    1         1  ON     0
       udH_1                -6.469939e-04    1         1  ON     1
       udH_2                 6.958979e-03    1         1  ON     2
       udH_3                 1.537472e-04    1         1  ON     3
       udH_4                -1.406960e-03    1         1  ON     4
       udH_5                 7.447289e-04    1         1  ON     5
       udH_6                 1.074010e-03    1         1  ON     6
       udH_7                -6.804704e-03    1         1  ON     7
       udH_8                 7.026776e-03    1         1  ON     8
       udH_9                 2.787744e-03    1         1  ON     9
      udH_10                 1.786559e-03    1         1  ON    10
      udH_11                -5.999544e-04    1         1  ON    11
      udH_12                -5.759402e-03    1         1  ON    12
      udH_13                -2.663292e-03    1         1  ON    13
      udH_14                 4.315200e-04    1         1  ON    14
      udH_15                 1.268686e-03    1         1  ON    15
      udH_16                -4.595163e-03    1         1  ON    16
      udH_17                -4.175232e-03    1         1  ON    17
      udH_18                 2.031117e-03    1         1  ON    18
      udH_19                 6.225446e-03    1         1  ON    19
      udH_20                 3.678690e-03    1         1  ON    20
      udH_21                -1.774170e-03    1         1  ON    21
      udH_22                -1.167910e-03    1         1  ON    22
      udH_23                -1.694214e-03    1         1  ON    23
      udH_24                 1.869731e-03    1         1  ON    24
      udH_25                -2.527710e-04    1         1  ON    25

     Ion: Be   electron-electron: u - u
      Number of parameters for e-e: 3, for e-I: 3
      Cutoff radius: 5

         Name                        Value Type Recompute Use Index
      ------- ---------------------------- ---- --------- --- -----
       uuBe_0                -1.116732e-02    1         1  ON     0
       uuBe_1                -6.591136e-04    1         1  ON     1
       uuBe_2                -1.512490e-02    1         1  ON     2
       uuBe_3                 3.171029e-02    1         1  ON     3
       uuBe_4                 1.069385e-03    1         1  ON     4
       uuBe_5                -1.109299e-04    1         1  ON     5
       uuBe_6                 1.839747e-02    1         1  ON     6
       uuBe_7                 1.217579e-02    1         1  ON     7
       uuBe_8                -1.484268e-02    1         1  ON     8
       uuBe_9                -7.132318e-03    1         1  ON     9
      uuBe_10                 7.291420e-03    1         1  ON    10
      uuBe_11                 4.841386e-03    1         1  ON    11
      uuBe_12                -7.290633e-03    1         1  ON    12
      uuBe_13                -1.342196e-02    1         1  ON    13
      uuBe_14                 9.067337e-03    1         1  ON    14
      uuBe_15                 7.950740e-04    1         1  ON    15
      uuBe_16                -5.563253e-04    1         1  ON    16
      uuBe_17                 8.458040e-03    1         1  ON    17
      uuBe_18                 4.307506e-03    1         1  ON    18
      uuBe_19                 1.376221e-02    1         1  ON    19
      uuBe_20                -2.598821e-03    1         1  ON    20
      uuBe_21                -6.208723e-03    1         1  ON    21
      uuBe_22                -3.355367e-03    1         1  ON    22
      uuBe_23                 1.619298e-03    1         1  ON    23
      uuBe_24                 1.296997e-03    1         1  ON    24
      uuBe_25                 1.299539e-03    1         1  ON    25

     Ion: Be   electron-electron: u - d
      Number of parameters for e-e: 3, for e-I: 3
      Cutoff radius: 5

         Name                        Value Type Recompute Use Index
      ------- ---------------------------- ---- --------- --- -----
       udBe_0                -9.795378e-03    1         1  ON     0
       udBe_1                -6.762056e-04    1         1  ON     1
       udBe_2                -2.804369e-03    1         1  ON     2
       udBe_3                 6.362173e-03    1         1  ON     3
       udBe_4                -6.226872e-03    1         1  ON     4
       udBe_5                 6.504517e-04    1         1  ON     5
       udBe_6                 4.130762e-03    1         1  ON     6
       udBe_7                 1.759955e-02    1         1  ON     7
       udBe_8                -9.178317e-03    1         1  ON     8
       udBe_9                -2.491978e-03    1         1  ON     9
      udBe_10                -6.162126e-03    1         1  ON    10
      udBe_11                 9.794933e-03    1         1  ON    11
      udBe_12                -3.083914e-03    1         1  ON    12
      udBe_13                -9.834876e-04    1         1  ON    13
      udBe_14                 1.429799e-03    1         1  ON    14
      udBe_15                 7.922428e-05    1         1  ON    15
      udBe_16                 3.867510e-03    1         1  ON    16
      udBe_17                 6.714686e-04    1         1  ON    17
      udBe_18                -1.031932e-04    1         1  ON    18
      udBe_19                 3.165483e-03    1         1  ON    19
      udBe_20                -3.420884e-03    1         1  ON    20
      udBe_21                -4.470823e-03    1         1  ON    21
      udBe_22                 8.506972e-04    1         1  ON    22
      udBe_23                 2.275884e-03    1         1  ON    23
      udBe_24                 2.423183e-03    1         1  ON    24
      udBe_25                -8.925607e-04    1         1  ON    25

  QMCHamiltonian::addOperator Kinetic to H, physical Hamiltonian 
  QMCHamiltonian::addOperator ElecElec to H, physical Hamiltonian 
QMCHamiltonian::addOperatorType added type coulomb named ElecElec
  QMCHamiltonian::addOperator IonIon to H, physical Hamiltonian 
QMCHamiltonian::addOperatorType added type coulomb named IonIon

  ECPotential builder for pseudopotential 

  Adding pseudopotential for H
   Linear grid  ri=0 rf=10 npts = 10001
    ECPComponentBuilder::buildSemiLocalAndLocal 
    Assuming Hartree unit
   Number of angular momentum channels 2
   Maximum angular momentum channel 1
   Creating a Linear Grid Rmax=1e-10
  Using global grid with delta = 0.001
   Making L=1 a local potential with a radial cutoff of 9.999
    Non-local pseudopotential parameters
    Maximum angular mementum = 0
    Number of non-local channels = 1
       l(0)=0
    Cutoff radius = 0.001
    Spherical grids and weights: 
                        1                 0                 0       0.08333333333
                       -1   1.224646799e-16                 0       0.08333333333
             0.4472135955       0.894427191                 0       0.08333333333
            -0.4472135955      0.7236067977      0.5257311121       0.08333333333
             0.4472135955      0.2763932023      0.8506508084       0.08333333333
            -0.4472135955     -0.2763932023      0.8506508084       0.08333333333
             0.4472135955     -0.7236067977      0.5257311121       0.08333333333
            -0.4472135955      -0.894427191   1.095357397e-16       0.08333333333
             0.4472135955     -0.7236067977     -0.5257311121       0.08333333333
            -0.4472135955     -0.2763932023     -0.8506508084       0.08333333333
             0.4472135955      0.2763932023     -0.8506508084       0.08333333333
            -0.4472135955      0.7236067977     -0.5257311121       0.08333333333
    Maximum cutoff radius 0.001

  Adding pseudopotential for Be
   Linear grid  ri=0 rf=10 npts = 10001
    ECPComponentBuilder::buildSemiLocalAndLocal 
    Assuming Hartree unit
   Number of angular momentum channels 2
   Maximum angular momentum channel 1
   Creating a Linear Grid Rmax=2.37
  Using global grid with delta = 0.001
   Making L=1 a local potential with a radial cutoff of 9.999
    Non-local pseudopotential parameters
    Maximum angular mementum = 0
    Number of non-local channels = 1
       l(0)=0
    Cutoff radius = 2.37
    Spherical grids and weights: 
                        1                 0                 0       0.08333333333
                       -1   1.224646799e-16                 0       0.08333333333
             0.4472135955       0.894427191                 0       0.08333333333
            -0.4472135955      0.7236067977      0.5257311121       0.08333333333
             0.4472135955      0.2763932023      0.8506508084       0.08333333333
            -0.4472135955     -0.2763932023      0.8506508084       0.08333333333
             0.4472135955     -0.7236067977      0.5257311121       0.08333333333
            -0.4472135955      -0.894427191   1.095357397e-16       0.08333333333
             0.4472135955     -0.7236067977     -0.5257311121       0.08333333333
            -0.4472135955     -0.2763932023     -0.8506508084       0.08333333333
             0.4472135955      0.2763932023     -0.8506508084       0.08333333333
            -0.4472135955      0.7236067977     -0.5257311121       0.08333333333
    Maximum cutoff radius 2.37
  QMCHamiltonian::addOperator LocalECP to H, physical Hamiltonian 

  Using NonLocalECP potential 
    Maximum grid on a sphere for NonLocalECPotential: 12
  QMCHamiltonian::addOperator NonLocalECP to H, physical Hamiltonian 
QMCHamiltonian::addOperatorType added type pseudo named PseudoPot

  QMCHamiltonian::add2WalkerProperty added
    5 to P::PropertyList 
    0 to P::Collectables 
    starting Index of the observables in P::PropertyList = 9
ParticleSetPool::randomize 1 ParticleSet.
<init source="ion0" target="e">
</init>
  Initialization Execution time = 0.3857 secs
=========================================================
 Summary of QMC systems 
=========================================================
ParticleSetPool has: 

  ParticleSet 'e' contains 4 particles :  u(2) d(2)

    u -6.2586258911e-01  5.6296967840e-01 -5.4460460245e-01
    u  5.6653072227e-01  7.5163216663e-01  2.1610981645e+00
    d  4.9709071732e-01  7.4007804452e-01  4.5871376590e-01
    d  6.7672837627e-01 -5.3013620824e-01 -3.0225049363e+00

  Distance table for dissimilar particles (A-B):
    source: ion0  target: e
    Using structure-of-arrays (SoA) data layout
    Distance computations use open boundary conditions in 3D.

  Distance table for similar particles (A-A):
    source/target: e
    Using structure-of-arrays (SoA) data layout
    Distance computations use open boundary conditions in 3D.


  ParticleSet 'ion0' contains 3 particles :  Be(1) H(2)

    Be  0.0000000000e+00  0.0000000000e+00  0.0000000000e+00
    H  0.0000000000e+00  0.0000000000e+00  2.5065327300e+00
    H  0.0000000000e+00  0.0000000000e+00 -2.5065327300e+00

  Distance table for similar particles (A-A):
    source/target: ion0
    Using structure-of-arrays (SoA) data layout
    Distance computations use open boundary conditions in 3D.


  Hamiltonian h0
  Kinetic         Kinetic energy
  ElecElec        CoulombAB source=e

  IonIon          CoulombAA source/target ion0

  LocalECP        LocalECPotential: ion0
  NonLocalECP     NonLocalECPotential: ion0


=========================================================
  Start VMC
  File Root gs_qmc.s000 append = no 
=========================================================
Resetting walkers
  Adding 256 walkers to 0 existing sets
  Total number of walkers: 5.1200000000e+02
  Total weight: 5.1200000000e+02
  Resetting Properties of the walkers 1 x 14

<vmc function="put">
  qmc_counter=0  my_counter=0
  time step      = 1.0000000000e+00
  blocks         = 100
  steps          = 20
  substeps       = 2
  current        = 0
  target samples = 0.0000000000e+00
  walkers/mpi    = 256

  stepsbetweensamples = 2020
  SpinMoves      = no
<parameter name="blocks" condition="int">100</parameter>
<parameter name="blocks_between_recompute" condition="int">0</parameter>
<parameter name="check_properties" condition="int">100</parameter>
<parameter name="checkproperties" condition="int">100</parameter>
<parameter name="current" condition="int">0</parameter>
<parameter name="dmcwalkersperthread" condition="real">0.0000000000e+00</parameter>
<parameter name="maxcpusecs" condition="real">3.6000000000e+05</parameter>
<parameter name="record_configs" condition="int">0</parameter>
<parameter name="record_walkers" condition="int">2020</parameter>
<parameter name="recordconfigs" condition="int">0</parameter>
<parameter name="recordwalkers" condition="int">2020</parameter>
<parameter name="rewind" condition="int">0</parameter>
<parameter name="samples" condition="real">0.0000000000e+00</parameter>
<parameter name="samplesperthread" condition="real">0.0000000000e+00</parameter>
<parameter name="spinmass" condition="double">1.0000000000e+00</parameter>
<parameter name="spinmoves" condition="string">no</parameter>
<parameter name="steps" condition="int">20</parameter>
<parameter name="stepsbetweensamples" condition="int">2020</parameter>
<parameter name="store_configs" condition="int">0</parameter>
<parameter name="storeconfigs" condition="int">0</parameter>
<parameter name="sub_steps" condition="int">2</parameter>
<parameter name="substeps" condition="int">2</parameter>
<parameter name="tau" condition="au">1.0000000000e+00</parameter>
<parameter name="time_step" condition="au">1.0000000000e+00</parameter>
<parameter name="timestep" condition="au">1.0000000000e+00</parameter>
<parameter name="use_drift" condition="string">yes</parameter>
<parameter name="usedrift" condition="string">yes</parameter>
<parameter name="walkers" condition="int">256</parameter>
<parameter name="warmup_steps" condition="int">20</parameter>
<parameter name="warmupsteps" condition="int">20</parameter>
  DumpConfig==false Nothing (configurations, state) will be saved.
  Walker Samples are dumped every 2020 steps.
</vmc>
  Set drift_modifier UNR parameter a = 1.0000000000e+00
  Adding a default LocalEnergyEstimator for the MainEstimator 
  CloneManager::makeClones makes 4 clones for W/Psi/H.
  Cloning methods for both Psi and H are used
===== Memory Usage before cloning =====
Available memory on node 0, free + buffers : 314 MB
Memory footprint by rank 0 on node 0       : 33 MB
==================================================
===== Memory Usage after cloning =====
Available memory on node 0, free + buffers : 308 MB
Memory footprint by rank 0 on node 0       : 35 MB
==================================================
  Initial partition of walkers 0 64 128 192 256 

  Using Particle by Particle moves
  Walker moves with drift
  Total Sample Size   =0
  Walker distribution on root = 0 64 128 192 256 
  Using Locality Approximation
===== Memory Usage after the buffer registration =====
Available memory on node 0, free + buffers : 297 MB
Memory footprint by rank 0 on node 0       : 42 MB
==================================================
  Anonymous Buffer size per walker : 17504 Bytes.
MEMORY increase 4 MB VMC::resetRun
====================================================
  SimpleFixedNodeBranch::finalize after a VMC block
    QMC counter        = 0
    time step          = 1
    reference energy   = -2.24528
    reference variance = 0.0222725
====================================================
  QMC Execution time = 2.2770e+02 secs
BRANCH resetRun
 SimpleFixedNodeBranch::resetRun detected changes in <parameter>'s 
 BranchMode : 0000001100 0000001100
 iParam (old): 20                1                 0                 0                 512               512               1                 0                 
 iParam (new): 50                1                 0                 2048              512               512               1                 0                 
 vParam (old): 1.0000000000e+00  1.0000000000e+00  -2.2452761843e+00 -2.2452761843e+00 1.0000000000e+00  1.0000000000e+00  1.0000000000e+00  1.0000000000e+00  2.2272540505e-02  -2.2452761843e+00 1.0000000000e+00  1.0000000000e+00  1.0000000000e+01  1.0000000000e+00  1.0000000000e+00  1.0000000000e+00  1.0000000000e+00  
 vParam (new): 2.0000000000e-02  1.0000000000e+00  -2.2452761843e+00 -2.2452761843e+00 1.0000000000e+00  1.0000000000e+00  1.0000000000e+00  1.0000000000e+00  2.2272540505e-02  -2.2452761843e+00 1.0000000000e+00  1.0000000000e+00  1.0000000000e+01  1.0000000000e+00  1.0000000000e+00  1.0000000000e+00  1.0000000000e+00  

=========================================================
  Start DMC
  File Root gs_qmc.s001 append = no 
=========================================================
Using existing walkers 
  Resetting Properties of the walkers 1 x 14
  Set drift_modifier UNR parameter a = 1.0000000000e+00
  Cannot make clones again. Use existing 4 clones
  Total number of walkers: 5.1200000000e+02
  Total weight: 5.1200000000e+02
  Creating WalkerController: target  number of walkers = 2048
  Using WalkerControlMPI for dynamic population control.
  START ALL OVER 
  WalkerControlBase parameters 
    maxCopy = 2
    Max Walkers per MPI rank 2049
    Min Walkers per MPI rank 205
    Using non-blocking send/recv
  QMC counter      = 1
  time step        = 2.0000000000e-02
  effective time step = 2.0000000000e-02
  trial energy     = -2.2452761843e+00
  reference energy = -2.2452761843e+00
  Feedback = 1.0000000000e+00
  reference variance = 2.2272540505e-02
  target walkers = 2048
  branching cutoff scheme classic
  branch cutoff = 5.0000000000e+01 7.5000000000e+01
  Max and minimum walkers per node= 2049 205
  QMC Status (BranchMode) = 0000001101
  Total number of walkers: 2.0480000000e+03
  Total weight: 2.0480000000e+03
  Initial partition of walkers on a node: 0 256 512 768 1024 
  Updates by particle-by-particle moves
  DMC moves are rejected when a node crossing is detected
  Using Non-local T-moves v1, M. Casula et al., JCP 132, 154113 (2010)
===== Memory Usage after the buffer registration =====
Available memory on node 0, free + buffers : 312 MB
Memory footprint by rank 0 on node 0       : 74 MB
==================================================
SimpleFixedNodeBranch::checkParameters 
  Average Energy of a population  = -2.24526
  Energy Variance = 0.02228

  Fluctuating population
  Persistent walkers are killed after 1 MC sweeps
  BranchInterval = 1
  Steps per block = 50
  Number of blocks = 20

  DMC Engine Initialization = 4.8713898403e-01 secs

 Warmup is completed after 50

  TauEff     = 1.9909370141e-02
 TauEff/Tau = 9.9546850704e-01
  Etrial     = -2.1658977263e+00
 Running average of energy = -2.2414552245e+00
                  Variance = 3.4023719506e-02
branch cutoff = 1.0000000000e+01 1.5000000000e+01
====================================================
  SimpleFixedNodeBranch::finalize after a DMC block
    QMC counter                   = 1
    time step                     = 0.02
    effective time step           = 0.0199095
    trial energy                  = -2.25625
    reference energy              = -2.24557
    reference variance            = 0.0340237
    target walkers                = 2048
    branch cutoff                 = 10 15
    Max and minimum walkers per node= 2049 205
    Feedback                      = 1
    QMC Status (BranchMode)       = 0000001111
====================================================
  QMC Execution time = 7.8845e+02 secs
BRANCH resetRun
 SimpleFixedNodeBranch::resetRun detected changes in <parameter>'s 
 BranchMode : 0000001111 0000001111
  WalkerControlBase parameters 
    maxCopy = 2
    Max Walkers per MPI rank 2049
    Min Walkers per MPI rank 205
    Using non-blocking send/recv
 iParam (old): 0                 1                 1                 2048              2049              205               1                 0                 
 iParam (new): 50                1                 1                 2048              2049              205               1                 0                 
 vParam (old): 2.0000000000e-02  1.9909489793e-02  -2.2562545159e+00 -2.2455696158e+00 -2.2487788681e+00 1.5000000000e+01  1.0000000000e+01  2.0000000000e-01  3.4023719506e-02  -2.1355399139e+03 9.5100000000e+02  1.0000000000e+00  1.0000000000e+01  1.0000000000e+00  1.0000000000e+00  1.0000000000e+00  1.0000000000e+00  
 vParam (new): 1.0000000000e-02  1.9909489793e-02  -2.2562545159e+00 -2.2455696158e+00 -2.2487788681e+00 1.5000000000e+01  1.0000000000e+01  2.0000000000e-01  3.4023719506e-02  -2.1355399139e+03 9.5100000000e+02  1.0000000000e+00  1.0000000000e+01  1.0000000000e+00  1.0000000000e+00  1.0000000000e+00  1.0000000000e+00  

 Using branching cutoff scheme classic

=========================================================
  Start DMC
  File Root gs_qmc.s002 append = no 
=========================================================
Using existing walkers 
  Resetting Properties of the walkers 1 x 14
  Set drift_modifier UNR parameter a = 1.0000000000e+00
  Cannot make clones again. Use existing 4 clones
  Total number of walkers: 2.0700000000e+03
  Total weight: 2.0700000000e+03
  WalkerControlBase parameters 
    maxCopy = 2
    Max Walkers per MPI rank 2049
    Min Walkers per MPI rank 205
    Using non-blocking send/recv
  QMC counter      = 2
  time step        = 1.0000000000e-02
  effective time step = 1.9909489793e-02
  trial energy     = -2.2562545159e+00
  reference energy = -2.2455696158e+00
  Feedback = 1.0000000000e+00
  reference variance = 3.4023719506e-02
  target walkers = 2048
  branching cutoff scheme classic
  branch cutoff = 1.0000000000e+01 1.5000000000e+01
  Max and minimum walkers per node= 2049 205
  QMC Status (BranchMode) = 0000001101
  Initial partition of walkers on a node: 0 258 517 776 1035 
  Updates by particle-by-particle moves
  DMC moves are rejected when a node crossing is detected
  Using Non-local T-moves v1, M. Casula et al., JCP 132, 154113 (2010)
===== Memory Usage after the buffer registration =====
Available memory on node 0, free + buffers : 468 MB
Memory footprint by rank 0 on node 0       : 81 MB
==================================================
SimpleFixedNodeBranch::checkParameters 
  Average Energy of a population  = -2.24901
  Energy Variance = 0.0452165

  Fluctuating population
  Persistent walkers are killed after 1 MC sweeps
  BranchInterval = 1
  Steps per block = 100
  Number of blocks = 20

  DMC Engine Initialization = 8.8689737511e-01 secs

 Warmup is completed after 50

  TauEff     = 9.9842214056e-03
 TauEff/Tau = 9.9842214056e-01
  Etrial     = -2.1971934241e+00
 Running average of energy = -2.2467161558e+00
                  Variance = 4.3632938824e-02
branch cutoff = 1.0000000000e+01 1.5000000000e+01
====================================================
  SimpleFixedNodeBranch::finalize after a DMC block
    QMC counter                   = 2
    time step                     = 0.01
    effective time step           = 0.00998324
    trial energy                  = -2.2378
    reference energy              = -2.24515
    reference variance            = 0.0436329
    target walkers                = 2048
    branch cutoff                 = 10 15
    Max and minimum walkers per node= 2049 205
    Feedback                      = 1
    QMC Status (BranchMode)       = 0000001111
====================================================
  QMC Execution time = 1.5365e+03 secs
BRANCH resetRun
 SimpleFixedNodeBranch::resetRun detected changes in <parameter>'s 
 BranchMode : 0000001111 0000001111
  WalkerControlBase parameters 
    maxCopy = 2
    Max Walkers per MPI rank 2049
    Min Walkers per MPI rank 205
    Using non-blocking send/recv
 iParam (old): 0                 1                 2                 2048              2049              205               1                 0                 
 iParam (new): 62                1                 2                 2048              2049              205               1                 0                 
 vParam (old): 1.0000000000e-02  9.9832422962e-03  -2.2378036381e+00 -2.2451548106e+00 -2.2408433380e+00 1.5000000000e+01  1.0000000000e+01  2.0000000000e-01  4.3632938824e-02  -4.3802927240e+03 1.9510000000e+03  1.0000000000e+00  1.0000000000e+01  1.0000000000e+00  1.0000000000e+00  1.0000000000e+00  1.0000000000e+00  
 vParam (new): 8.0000000000e-03  9.9832422962e-03  -2.2378036381e+00 -2.2451548106e+00 -2.2408433380e+00 1.5000000000e+01  1.0000000000e+01  2.0000000000e-01  4.3632938824e-02  -4.3802927240e+03 1.9510000000e+03  1.0000000000e+00  1.0000000000e+01  1.0000000000e+00  1.0000000000e+00  1.0000000000e+00  1.0000000000e+00  

 Using branching cutoff scheme classic

=========================================================
  Start DMC
  File Root gs_qmc.s003 append = no 
=========================================================
Using existing walkers 
  Resetting Properties of the walkers 1 x 14
  Set drift_modifier UNR parameter a = 1.0000000000e+00
  Cannot make clones again. Use existing 4 clones
  Total number of walkers: 2.0330000000e+03
  Total weight: 2.0330000000e+03
  WalkerControlBase parameters 
    maxCopy = 2
    Max Walkers per MPI rank 2049
    Min Walkers per MPI rank 205
    Using non-blocking send/recv
  QMC counter      = 3
  time step        = 8.0000000000e-03
  effective time step = 9.9832422962e-03
  trial energy     = -2.2378036381e+00
  reference energy = -2.2451548106e+00
  Feedback = 1.0000000000e+00
  reference variance = 4.3632938824e-02
  target walkers = 2048
  branching cutoff scheme classic
  branch cutoff = 1.0000000000e+01 1.5000000000e+01
  Max and minimum walkers per node= 2049 205
  QMC Status (BranchMode) = 0000001101
  Initial partition of walkers on a node: 0 254 508 762 1016 
  Updates by particle-by-particle moves
  DMC moves are rejected when a node crossing is detected
  Using Non-local T-moves v1, M. Casula et al., JCP 132, 154113 (2010)
===== Memory Usage after the buffer registration =====
Available memory on node 0, free + buffers : 2843 MB
Memory footprint by rank 0 on node 0       : 84 MB
==================================================
SimpleFixedNodeBranch::checkParameters 
  Average Energy of a population  = -2.23922
  Energy Variance = 0.0227221

  Fluctuating population
  Persistent walkers are killed after 1 MC sweeps
  BranchInterval = 1
  Steps per block = 125
  Number of blocks = 20

  DMC Engine Initialization = 3.0787786120e-01 secs

 Warmup is completed after 62

  TauEff     = 7.9897765019e-03
 TauEff/Tau = 9.9872206274e-01
  Etrial     = -2.2426406582e+00
 Running average of energy = -2.2432791390e+00
                  Variance = 3.0430948124e-02
branch cutoff = 1.0000000000e+01 1.5000000000e+01
====================================================
  SimpleFixedNodeBranch::finalize after a DMC block
    QMC counter                   = 3
    time step                     = 0.008
    effective time step           = 0.00799012
    trial energy                  = -2.24401
    reference energy              = -2.24498
    reference variance            = 0.0304309
    target walkers                = 2048
    branch cutoff                 = 10 15
    Max and minimum walkers per node= 2049 205
    Feedback                      = 1
    QMC Status (BranchMode)       = 0000001111
====================================================
  QMC Execution time = 7.3892e+02 secs
  Total Execution time = 3.2916e+03 secs

=========================================================
  A new xml input file : gs_qmc.s003.cont.xml
