#INFO: **** input file is /home/haihan/Research/C2H2/Pyscf/C2H2.py ****
import sys, os
from pyscf import gto, scf, cc, dft
from pyscf.cc import uccsd_t
import numpy as np
import pandas as pd

workdir = os.path.dirname(os.path.realpath(__file__))
C_basfile = os.path.join(workdir,'C.aug-cc-pVQZ.basis')
h_basfile = os.path.join(workdir, 'H.aug-cc-pVQZ.basis')

mol = gto.Mole()
mol.atom = '''
C 0.0000  0.0000  0.6013; 
C 0.0000  0.0000 -0.6013;
H 0.0000  0.0000  1.6644;
H 0.0000  0.0000 -1.6644;
'''
mol.unit = 'Angstorm'
mol.basis = {'C': gto.load(C_basfile,'C'),'H': gto.load(h_basfile,'H')}
mol.symmetry =True
mol.spin = 0
mol.verbose = 5
mol.charge = 0
mol.ecp = {'C': gto.basis.parse_ecp('''
C nelec 2
C ul
1 14.43502 4.00000
3 8.39889 57.74008
2 7.38188 -25.81955
C S
2 7.76079 52.13345
'''),
'H': gto.basis.parse_ecp('''
H nelec 0
H ul
1 21.24359508259891 1.00000000000000
3 21.24359508259891 21.24359508259891
2 21.77696655044365 -10.85192405303825
H S
2 1.000000000000000 0.00000000000000
''')}
mol.build()


hf = scf.ROHF(mol)
hf.max_cycle = 300
hf.verbose=5
#dm=hf.init_guess_by_chkfile('./pbe-triplet.chkfile')
hf.chkfile='C2H2.chkfile'

hf.kernel()

hf.analyze()

#print('E(HF) = %g' % hf.kernel())
#INFO: ******************** input file end ********************


System: uname_result(system='Linux', node='Haihan', release='5.4.0-58-generic', version='#64-Ubuntu SMP Wed Dec 9 08:16:25 UTC 2020', machine='x86_64', processor='x86_64')  Threads 8
Python 3.8.3 (default, Jul  2 2020, 16:21:59) 
[GCC 7.3.0]
numpy 1.18.4  scipy 1.4.1
Date: Tue Feb  2 09:53:12 2021
PySCF version 1.7.2
PySCF path  /home/haihan/.local/lib/python3.8/site-packages/pyscf

[CONFIG] conf_file None
[INPUT] verbose = 5
[INPUT] max_memory = 4000 
[INPUT] num. atoms = 4
[INPUT] num. electrons = 10
[INPUT] charge = 0
[INPUT] spin (= nelec alpha-beta = 2S) = 0
[INPUT] symmetry True subgroup None
[INPUT] Mole.unit = Angstorm
[INPUT]  1 C      0.000000000000   0.000000000000   0.601300000000 AA    0.000000000000   0.000000000000   1.136292318701 Bohr
[INPUT]  2 C      0.000000000000   0.000000000000  -0.601300000000 AA    0.000000000000   0.000000000000  -1.136292318701 Bohr
[INPUT]  3 H      0.000000000000   0.000000000000   1.664400000000 AA    0.000000000000   0.000000000000   3.145260161726 Bohr
[INPUT]  4 H      0.000000000000   0.000000000000  -1.664400000000 AA    0.000000000000   0.000000000000  -3.145260161726 Bohr
[INPUT] ---------------- BASIS SET ---------------- 
[INPUT] l, kappa, [nprim/nctr], expnt,             c_1 c_2 ...
[INPUT] C
[INPUT] 0    0    [9    /1   ]  13.073594         0.0051583
                                6.541187          0.0603424
                                4.573411          -0.1978471
                                1.637494          -0.081034
                                0.819297          0.2321726
                                0.409924          0.2914643
                                0.2313            0.4336405
                                0.102619          0.213194
                                0.051344          0.0049848
[INPUT] 0    0    [1    /1   ]  0.846879             1
[INPUT] 0    0    [1    /1   ]  0.269659             1
[INPUT] 0    0    [1    /1   ]  0.109576             1
[INPUT] 0    0    [1    /1   ]  0.04383              1
[INPUT] 1    0    [9    /1   ]  9.934169          0.0209076
                                3.886955          0.0572698
                                1.871016          0.1122682
                                0.935757          0.2130082
                                0.468003          0.2835815
                                0.239473          0.3011207
                                0.117063          0.2016934
                                0.058547          0.0453575
                                0.029281          0.0029775
[INPUT] 1    0    [1    /1   ]  0.804681             1
[INPUT] 1    0    [1    /1   ]  0.313254             1
[INPUT] 1    0    [1    /1   ]  0.105389             1
[INPUT] 1    0    [1    /1   ]  0.042156             1
[INPUT] 2    0    [1    /1   ]  2.01376              1
[INPUT] 2    0    [1    /1   ]  0.684884             1
[INPUT] 2    0    [1    /1   ]  0.240171             1
[INPUT] 2    0    [1    /1   ]  0.096069             1
[INPUT] 3    0    [1    /1   ]  0.457302             1
[INPUT] 3    0    [1    /1   ]  1.32493              1
[INPUT] 3    0    [1    /1   ]  0.529972             1
[INPUT] 4    0    [1    /1   ]  1.03418              1
[INPUT] 4    0    [1    /1   ]  0.413672             1
[INPUT] H
[INPUT] 0    0    [8    /1   ]  23.843185         0.0041149
                                10.212443         0.0104644
                                4.374164          0.0280111
                                1.873529          0.0758862
                                0.802465          0.1821062
                                0.343709          0.3485214
                                0.147217          0.3782313
                                0.063055          0.1164241
[INPUT] 0    0    [1    /1   ]  0.028726             1
[INPUT] 0    0    [1    /1   ]  0.081856             1
[INPUT] 0    0    [1    /1   ]  0.233254             1
[INPUT] 0    0    [1    /1   ]  0.664673             1
[INPUT] 1    0    [1    /1   ]  0.095522             1
[INPUT] 1    0    [1    /1   ]  0.284469             1
[INPUT] 1    0    [1    /1   ]  0.847159             1
[INPUT] 1    0    [1    /1   ]  2.522868             1
[INPUT] 2    0    [1    /1   ]  0.216033             1
[INPUT] 2    0    [1    /1   ]  0.665279             1
[INPUT] 2    0    [1    /1   ]  2.048739             1
[INPUT] 3    0    [1    /1   ]  0.444647             1
[INPUT] 3    0    [1    /1   ]  1.42146              1

nuclear repulsion = 13.0500367197635
point group symmetry = Dooh
num. orbitals of irrep A1g = 33
num. orbitals of irrep E1gx = 23
num. orbitals of irrep E1gy = 23
num. orbitals of irrep A1u = 33
num. orbitals of irrep E1uy = 23
num. orbitals of irrep E1ux = 23
num. orbitals of irrep E2gx = 14
num. orbitals of irrep E2gy = 14
num. orbitals of irrep E3gx = 7
num. orbitals of irrep E3gy = 7
num. orbitals of irrep E2uy = 14
num. orbitals of irrep E2ux = 14
num. orbitals of irrep E3uy = 7
num. orbitals of irrep E3ux = 7
num. orbitals of irrep E4gx = 2
num. orbitals of irrep E4gy = 2
num. orbitals of irrep E4uy = 2
num. orbitals of irrep E4ux = 2
number of shells = 66
number of NR pGTOs = 328
number of NR cGTOs = 250
basis = {'C': [[0, [13.073594, 0.0051583], [6.541187, 0.0603424], [4.573411, -0.1978471], [1.637494, -0.081034], [0.819297, 0.2321726], [0.409924, 0.2914643], [0.2313, 0.4336405], [0.102619, 0.213194], [0.051344, 0.0049848]], [0, [0.846879, 1.0]], [0, [0.269659, 1.0]], [0, [0.109576, 1.0]], [0, [0.04383, 1.0]], [1, [9.934169, 0.0209076], [3.886955, 0.0572698], [1.871016, 0.1122682], [0.935757, 0.2130082], [0.468003, 0.2835815], [0.239473, 0.3011207], [0.117063, 0.2016934], [0.058547, 0.0453575], [0.029281, 0.0029775]], [1, [0.804681, 1.0]], [1, [0.313254, 1.0]], [1, [0.105389, 1.0]], [1, [0.042156, 1.0]], [2, [2.01376, 1.0]], [2, [0.684884, 1.0]], [2, [0.240171, 1.0]], [2, [0.096069, 1.0]], [3, [0.457302, 1.0]], [3, [1.32493, 1.0]], [3, [0.529972, 1.0]], [4, [1.03418, 1.0]], [4, [0.413672, 1.0]]], 'H': [[0, [23.843185, 0.0041149], [10.212443, 0.0104644], [4.374164, 0.0280111], [1.873529, 0.0758862], [0.802465, 0.1821062], [0.343709, 0.3485214], [0.147217, 0.3782313], [0.063055, 0.1164241]], [0, [0.028726, 1.0]], [0, [0.081856, 1.0]], [0, [0.233254, 1.0]], [0, [0.664673, 1.0]], [1, [0.095522, 1.0]], [1, [0.284469, 1.0]], [1, [0.847159, 1.0]], [1, [2.522868, 1.0]], [2, [0.216033, 1.0]], [2, [0.665279, 1.0]], [2, [2.048739, 1.0]], [3, [0.444647, 1.0]], [3, [1.42146, 1.0]]]}
ecp = {'C': [2, [[-1, [[], [[14.43502, 4.0]], [[7.38188, -25.81955]], [[8.39889, 57.74008]], [], [], []]], [0, [[], [], [[7.76079, 52.13345]], [], [], [], []]]]], 'H': [0, [[-1, [[], [[21.24359508259891, 1.0]], [[21.77696655044365, -10.85192405303825]], [[21.24359508259891, 21.24359508259891]], [], [], []]], [0, [[], [], [[1.0, 0.0]], [], [], [], []]]]]}
CPU time:         0.45


******** <class 'pyscf.scf.hf_symm.SymAdaptedROHF'> ********
method = SymAdaptedROHF-ROHF-RHF
initial guess = minao
damping factor = 0
level_shift factor = 0
DIIS = <class 'pyscf.scf.diis.CDIIS'>
diis_start_cycle = 1
diis_space = 8
SCF conv_tol = 1e-09
SCF conv_tol_grad = None
SCF max_cycles = 300
direct_scf = True
direct_scf_tol = 1e-13
chkfile to save SCF result = C2H2.chkfile
max_memory 4000 MB (current use 95 MB)
num. doubly occ = 5  num. singly occ = 0
Freeze 0 electrons in irreps []
    10 free electrons in irreps A1g E1gx E1gy A1u E1uy E1ux E2gx E2gy E3gx E3gy E2uy E2ux E3uy E3ux E4gx E4gy E4uy E4ux
Set gradient conv threshold to 3.16228e-05
    CPU time for vj and vk     60.38 sec, wall time      7.57 sec
E1 = -42.26645343778903  Ecoul = 17.46746115722052
init E= -11.748955560805
cond(S) = 9830069.646249965
    CPU time for initialize scf     61.48 sec, wall time      7.72 sec
HOMO (E1ux) = -0.361349662062267  LUMO (A1g) = 0.0298865155830856
double occ irrep_nelec = [2, 0, 0, 1, 1, 1, 0, 0, 0, 0, 0, 0, 0, 0, 0, 0, 0, 0]
single occ irrep_nelec = [0, 0, 0, 0, 0, 0, 0, 0, 0, 0, 0, 0, 0, 0, 0, 0, 0, 0]
  Roothaan mo_energy =
[-1.43754613 -0.59827319  0.02988652  0.10377395  0.13270208  0.25905338
  0.31312266  0.37215123  0.58101852  0.6847013   0.8149042   0.95216766
  1.34020255  1.53003137  1.6311971   2.01916218  2.62216722  2.65012038
  2.97689584  3.32129885  3.91789734  4.27167981  4.569188    5.35529288
  6.26688807  7.06966616  7.93172719  8.40771433  9.7392448  10.02868799
 11.94412252 13.95920179 19.96694614  0.04855523  0.14022147  0.33939803
  0.4133595   0.78166888  0.82807101  1.11614436  1.56928293  1.97316913
  2.01190635  2.58635442  3.02578172  3.52114619  3.75160014  4.51677833
  4.94131503  6.86153404  7.57922477  8.1356109   8.46263245  9.89176369
 10.66960434 12.75982988  0.04855523  0.14022147  0.33939803  0.4133595
  0.78166888  0.82807101  1.11614436  1.56928293  1.97316913  2.01190635
  2.58635442  3.02578172  3.52114619  3.75160014  4.51677833  4.94131503
  6.86153404  7.57922477  8.1356109   8.46263245  9.89176369 10.66960434
 12.75982988 -0.83483526  0.03708845  0.11472158  0.1681124   0.23213808
  0.35961695  0.44952238  0.49730915  0.71779188  0.89119078  1.02297884
  1.16182209  1.58110969  1.66989519  1.88630672  2.2482136   2.70327731
  3.0338618   3.21271076  3.80288504  4.17065498  4.38011237  5.1667733
  5.6708715   7.72454041  7.82688277  8.17797333  9.01712172  9.63189429
 10.08140371 11.98595742 14.37161288 21.07121151 -0.36134966  0.09804672
  0.26213777  0.41892487  0.53410122  0.76945463  1.02254913  1.21919688
  1.67082253  2.02699617  2.32298388  2.45747906  3.26054294  3.56003814
  3.81797713  5.16314113  6.13771313  6.52758815  7.54584346  8.22707047
  8.74040108 10.0035259  11.75058132 -0.36134966  0.09804672  0.26213777
  0.41892487  0.53410122  0.76945463  1.02254913  1.21919688  1.67082253
  2.02699617  2.32298388  2.45747906  3.26054294  3.56003814  3.81797713
  5.16314113  6.13771313  6.52758815  7.54584346  8.22707047  8.74040108
 10.0035259  11.75058132  0.26239525  0.75388541  0.76188656  1.70830056
  2.00109395  2.15984824  3.19669826  3.40388431  4.24144842  5.89136403
  6.97337404  7.3837802   8.22188715  9.47576162  0.26239525  0.75388541
  0.76188656  1.70830056  2.00109395  2.15984824  3.19669826  3.40388431
  4.24144842  5.89136403  6.97337404  7.3837802   8.22188715  9.47576162
  1.55144737  2.19857615  3.26856802  3.55354572  6.53502195  7.3926803
  7.46488885  1.55144737  2.19857615  3.26856802  3.55354572  6.53502195
  7.3926803   7.46488885  0.35322743  0.86225653  0.97690856  1.84282824
  2.12544612  2.43501423  3.43982122  3.84673365  4.22753391  7.18342749
  7.5977851   7.90759416  8.94000739  9.54085328  0.35322743  0.86225653
  0.97690856  1.84282824  2.12544612  2.43501423  3.43982122  3.84673365
  4.22753391  7.18342749  7.5977851   7.90759416  8.94000739  9.54085328
  1.27424713  1.95908463  2.6757814   3.16622241  5.677184    7.11167625
  7.23219953  1.27424713  1.95908463  2.6757814   3.16622241  5.677184
  7.11167625  7.23219953  1.96408358  5.81999565  1.96408358  5.81999565
  2.30761864  6.12972359  2.30761864  6.12972359]
    CPU time for vj and vk     61.62 sec, wall time      7.71 sec
E1 = -43.86866611129852  Ecoul = 18.728946513538887
cycle= 1 E= -12.0896828779961  delta_E= -0.341  |g|= 0.286  |ddm|= 2.81
    CPU time for cycle= 1     61.89 sec, wall time      7.77 sec
HOMO (E1ux) = -0.389043386212572  LUMO (A1g) = 0.0304954280519486
double occ irrep_nelec = [2, 0, 0, 1, 1, 1, 0, 0, 0, 0, 0, 0, 0, 0, 0, 0, 0, 0]
single occ irrep_nelec = [0, 0, 0, 0, 0, 0, 0, 0, 0, 0, 0, 0, 0, 0, 0, 0, 0, 0]
  Roothaan mo_energy =
[-1.01006609 -0.66024483  0.03049543  0.11370042  0.13363785  0.29423503
  0.32382796  0.37233339  0.62425648  0.71608739  0.82428392  0.95588375
  1.38726826  1.55747585  1.67923729  2.03375038  2.6191907   2.7210138
  3.01229645  3.452662    3.96163582  4.30303516  4.66572853  5.49733522
  6.46237028  7.19609491  7.98585389  8.45183191  9.78214975 10.11849277
 12.06892157 14.08786106 20.19698152  0.10254093  0.20779084  0.33664739
  0.45788293  0.77494247  0.87089729  1.13548576  1.58278005  2.02899392
  2.05064303  2.56333683  3.04384669  3.60482981  3.83470266  4.59319109
  4.96621263  6.96801643  7.72700086  8.2016721   8.5615115   9.99061352
 10.70294323 12.8628699   0.10254093  0.20779084  0.33664739  0.45788293
  0.77494247  0.87089729  1.13548576  1.58278005  2.02899392  2.05064303
  2.56333683  3.04384669  3.60482981  3.83470266  4.59319109  4.96621263
  6.96801643  7.72700086  8.2016721   8.5615115   9.99061352 10.70294323
 12.8628699  -0.76874185  0.03621921  0.12555621  0.17041209  0.27859735
  0.37395993  0.45898923  0.5217439   0.73664189  0.91090993  1.03279989
  1.23646463  1.62906901  1.73132311  1.90350665  2.25358137  2.7765005
  3.05795239  3.24396306  3.82899956  4.2390384   4.44610213  5.24756453
  5.75260202  7.80446915  7.91461624  8.35843811  9.08384883  9.67917003
 10.15545468 12.03140383 14.53180196 21.31839695 -0.38904339  0.10827507
  0.25647857  0.45588136  0.54514888  0.76536953  1.05280124  1.2801766
  1.71507309  2.12034485  2.29283376  2.5101867   3.33662508  3.65846126
  3.85658443  5.22596464  6.30055988  6.70717236  7.69940526  8.21219092
  8.87368364 10.00965348 11.84544809 -0.38904339  0.10827507  0.25647857
  0.45588136  0.54514888  0.76536953  1.05280124  1.2801766   1.71507309
  2.12034485  2.29283376  2.5101867   3.33662508  3.65846126  3.85658443
  5.22596464  6.30055988  6.70717236  7.69940526  8.21219092  8.87368364
 10.00965348 11.84544809  0.28442917  0.75412406  0.82276394  1.76196527
  1.99938805  2.2412709   3.25915379  3.50574721  4.25060857  6.05777561
  7.13745143  7.5264513   8.25906864  9.46587683  0.28442917  0.75412406
  0.82276394  1.76196527  1.99938805  2.2412709   3.25915379  3.50574721
  4.25060857  6.05777561  7.13745143  7.5264513   8.25906864  9.46587683
  1.58458918  2.20309355  3.31136425  3.63813283  6.61514992  7.44850379
  7.59850855  1.58458918  2.20309355  3.31136425  3.63813283  6.61514992
  7.44850379  7.59850855  0.36086144  0.87079569  0.99934477  1.91033089
  2.13702294  2.42608392  3.53046091  3.87074293  4.31493901  7.24005763
  7.7560054   8.05851438  8.9650157   9.60396186  0.36086144  0.87079569
  0.99934477  1.91033089  2.13702294  2.42608392  3.53046091  3.87074293
  4.31493901  7.24005763  7.7560054   8.05851438  8.9650157   9.60396186
  1.33489542  1.97360568  2.7188261   3.26954299  5.81116484  7.13607101
  7.3597706   1.33489542  1.97360568  2.7188261   3.26954299  5.81116484
  7.13607101  7.3597706   2.03135372  5.94649993  2.03135372  5.94649993
  2.35739641  6.25084078  2.35739641  6.25084078]
    CPU time for vj and vk     61.86 sec, wall time      7.75 sec
E1 = -43.604567369731555  Ecoul = 18.44058111360819
cycle= 2 E= -12.1139495363599  delta_E= -0.0243  |g|= 0.0742  |ddm|= 0.449
    CPU time for cycle= 2     62.06 sec, wall time      7.80 sec
HOMO (E1ux) = -0.421061126999833  LUMO (A1g) = 0.0304975234733963
double occ irrep_nelec = [2, 0, 0, 1, 1, 1, 0, 0, 0, 0, 0, 0, 0, 0, 0, 0, 0, 0]
single occ irrep_nelec = [0, 0, 0, 0, 0, 0, 0, 0, 0, 0, 0, 0, 0, 0, 0, 0, 0, 0]
  Roothaan mo_energy =
[-1.05338452 -0.68672539  0.03049752  0.11163389  0.13433998  0.28978613
  0.32233896  0.37257724  0.62037322  0.71067925  0.8230742   0.9569032
  1.37750647  1.55424965  1.67335746  2.03191135  2.62179944  2.70813184
  3.00856134  3.4195443   3.95921289  4.30393624  4.64481939  5.46628745
  6.42129092  7.17403465  7.98752346  8.45684144  9.79523511 10.11250752
 12.05845469 14.07236229 20.13395143  0.10075358  0.19728659  0.33729707
  0.44847116  0.77841362  0.86104451  1.13199399  1.58270414  2.02089175
  2.03744886  2.56994847  3.04505915  3.58696205  3.81355653  4.57659823
  4.97070736  6.95225961  7.68623114  8.20173488  8.53073344  9.98840047
 10.71794476 12.84904361  0.10075358  0.19728659  0.33729707  0.44847116
  0.77841362  0.86104451  1.13199399  1.58270414  2.02089175  2.03744886
  2.56994847  3.04505915  3.58696205  3.81355653  4.57659823  4.97070736
  6.95225961  7.68623114  8.20173488  8.53073344  9.98840047 10.71794476
 12.84904361 -0.77674187  0.0370137   0.12742583  0.17037988  0.28155689
  0.37206474  0.45905281  0.52127016  0.73251803  0.91006321  1.03253992
  1.22187155  1.62435851  1.71252629  1.90676277  2.25397713  2.76008627
  3.05423243  3.23963561  3.83398396  4.23058372  4.43183836  5.22984204
  5.73804984  7.79789489  7.8971303   8.31505356  9.07951125  9.69396582
 10.15627437 12.04489694 14.50882946 21.25036726 -0.42106113  0.10602207
  0.25812185  0.44649484  0.54363131  0.76796871  1.04670168  1.26582303
  1.70445059  2.09813158  2.30166973  2.50293307  3.31817519  3.6387019
  3.84934668  5.21554637  6.26860147  6.66526123  7.658687    8.23023326
  8.84966573 10.03707471 11.83675513 -0.42106113  0.10602207  0.25812185
  0.44649484  0.54363131  0.76796871  1.04670168  1.26582303  1.70445059
  2.09813158  2.30166973  2.50293307  3.31817519  3.6387019   3.84934668
  5.21554637  6.26860147  6.66526123  7.658687    8.23023326  8.84966573
 10.03707471 11.83675513  0.27821364  0.75537117  0.80349457  1.74928854
  2.00204766  2.2184163   3.24390713  3.4822975   4.2543589   6.02049738
  7.08765295  7.49478775  8.25876322  9.49553586  0.27821364  0.75537117
  0.80349457  1.74928854  2.00204766  2.2184163   3.24390713  3.4822975
  4.2543589   6.02049738  7.08765295  7.49478775  8.25876322  9.49553586
  1.57671607  2.20344173  3.30055859  3.61307054  6.60399147  7.44159782
  7.55504567  1.57671607  2.20344173  3.30055859  3.61307054  6.60399147
  7.44159782  7.55504567  0.35944226  0.87066203  0.99317189  1.89303591
  2.13793393  2.42879622  3.5057161   3.87034624  4.29371983  7.23865365
  7.71037743  8.01870062  8.97284624  9.60379056  0.35944226  0.87066203
  0.99317189  1.89303591  2.13793393  2.42879622  3.5057161   3.87034624
  4.29371983  7.23865365  7.71037743  8.01870062  8.97284624  9.60379056
  1.31840632  1.97226252  2.70770864  3.23983382  5.7787129   7.14544223
  7.31870016  1.31840632  1.97226252  2.70770864  3.23983382  5.7787129
  7.14544223  7.31870016  2.01330819  5.90670482  2.01330819  5.90670482
  2.34366148  6.21175599  2.34366148  6.21175599]
    CPU time for vj and vk     61.92 sec, wall time      7.75 sec
E1 = -43.73256959078933  Ecoul = 18.566755115623224
cycle= 3 E= -12.1157777554026  delta_E= -0.00183  |g|= 0.0236  |ddm|= 0.123
    CPU time for cycle= 3     62.12 sec, wall time      7.81 sec
HOMO (E1ux) = -0.410518266140371  LUMO (A1g) = 0.0306001200745185
double occ irrep_nelec = [2, 0, 0, 1, 1, 1, 0, 0, 0, 0, 0, 0, 0, 0, 0, 0, 0, 0]
single occ irrep_nelec = [0, 0, 0, 0, 0, 0, 0, 0, 0, 0, 0, 0, 0, 0, 0, 0, 0, 0]
  Roothaan mo_energy =
[-1.03864178 -0.68083163  0.03060012  0.11220722  0.13465572  0.29206733
  0.32317759  0.37296759  0.62401628  0.71297603  0.82430084  0.95827299
  1.38165375  1.55789088  1.6781736   2.0345834   2.62337147  2.71599498
  3.013778    3.42914045  3.96585741  4.30935063  4.65409405  5.47935214
  6.43701544  7.18682786  7.99663706  8.46750843  9.80469158 10.12470877
 12.07404825 14.08712961 20.15535065  0.10218535  0.20291737  0.33753356
  0.45229713  0.77918957  0.86421737  1.1348101   1.58494025  2.02658862
  2.04136369  2.57075592  3.04901107  3.59453256  3.82079666  4.58459139
  4.97587712  6.96388932  7.69994378  8.21001958  8.54331393 10.00111557
 10.72717541 12.86134266  0.10218535  0.20291737  0.33753356  0.45229713
  0.77918957  0.86421737  1.1348101   1.58494025  2.02658862  2.04136369
  2.57075592  3.04901107  3.59453256  3.82079666  4.58459139  4.97587712
  6.96388932  7.69994378  8.21001958  8.54331393 10.00111557 10.72717541
 12.86134266 -0.76967484  0.03707094  0.12803462  0.17051122  0.28454884
  0.37329924  0.46014614  0.52416961  0.73446875  0.91249213  1.03405786
  1.22771609  1.6281447   1.71870293  1.91045398  2.25629562  2.76718036
  3.05777193  3.24385408  3.83917351  4.23806614  4.43931642  5.23795862
  5.74700696  7.8080479   7.90736929  8.33050038  9.08952968  9.70412849
 10.1685112  12.05499248 14.52669888 21.27281066 -0.41051827  0.10663667
  0.25835155  0.44931463  0.54490539  0.76883933  1.05049838  1.27049947
  1.70845314  2.10607125  2.30226455  2.50894639  3.32511124  3.64727572
  3.85484286  5.2226713   6.28274415  6.6810937   7.67244135  8.23565203
  8.86406681 10.0448097  11.84899646 -0.41051827  0.10663667  0.25835155
  0.44931463  0.54490539  0.76883933  1.05049838  1.27049947  1.70845314
  2.10607125  2.30226455  2.50894639  3.32511124  3.64727572  3.85484286
  5.2226713   6.28274415  6.6810937   7.67244135  8.23565203  8.86406681
 10.0448097  11.84899646  0.27955739  0.75604909  0.80808144  1.75356219
  2.00359938  2.22560414  3.24938887  3.49049299  4.25750646  6.03402741
  7.10200537  7.50742558  8.26611192  9.50202009  0.27955739  0.75604909
  0.80808144  1.75356219  2.00359938  2.22560414  3.24938887  3.49049299
  4.25750646  6.03402741  7.10200537  7.50742558  8.26611192  9.50202009
  1.57919573  2.20499523  3.30361527  3.61924031  6.61242528  7.44912852
  7.56610693  1.57919573  2.20499523  3.30361527  3.61924031  6.61242528
  7.44912852  7.56610693  0.35989782  0.87192791  0.99488719  1.89810598
  2.14030375  2.43015374  3.51292058  3.87468432  4.30107063  7.24655416
  7.72414154  8.0319885   8.98021741  9.61310109  0.35989782  0.87192791
  0.99488719  1.89810598  2.14030375  2.43015374  3.51292058  3.87468432
  4.30107063  7.24655416  7.72414154  8.0319885   8.98021741  9.61310109
  1.32210341  1.9744461   2.71096032  3.24699879  5.78948955  7.15151366
  7.32987749  1.32210341  1.9744461   2.71096032  3.24699879  5.78948955
  7.15151366  7.32987749  2.0170926   5.91593061  2.0170926   5.91593061
  2.34652871  6.22067622  2.34652871  6.22067622]
    CPU time for vj and vk     61.91 sec, wall time      7.75 sec
E1 = -43.70175099367979  Ecoul = 18.53574688322879
cycle= 4 E= -12.1159673906875  delta_E= -0.00019  |g|= 0.00202  |ddm|= 0.0436
    CPU time for cycle= 4     62.11 sec, wall time      7.80 sec
HOMO (E1ux) = -0.411107529376531  LUMO (A1g) = 0.0305637044343867
double occ irrep_nelec = [2, 0, 0, 1, 1, 1, 0, 0, 0, 0, 0, 0, 0, 0, 0, 0, 0, 0]
single occ irrep_nelec = [0, 0, 0, 0, 0, 0, 0, 0, 0, 0, 0, 0, 0, 0, 0, 0, 0, 0]
  Roothaan mo_energy =
[-1.03941434 -0.68230617  0.0305637   0.11218614  0.13451559  0.29176213
  0.32303351  0.37282513  0.62340859  0.71274579  0.82409301  0.95797267
  1.38127799  1.55719063  1.67768386  2.03414828  2.62296689  2.7150448
  3.01285689  3.42867217  3.96485245  4.30842082  4.65303684  5.47812859
  6.43600984  7.18536437  7.9952007   8.46590656  9.80310492 10.12303411
 12.07212405 14.08535364 20.15310678  0.1020588   0.2024776   0.33743643
  0.45197147  0.77892415  0.86401695  1.13435039  1.58456088  2.0257541
  2.04100891  2.57032337  3.04830764  3.59364602  3.82009139  4.5836064
  4.97495744  6.96232116  7.69835952  8.20886634  8.54200673  9.99933489
 10.72553144 12.85978911  0.1020588   0.2024776   0.33743643  0.45197147
  0.77892415  0.86401695  1.13435039  1.58456088  2.0257541   2.04100891
  2.57032337  3.04830764  3.59364602  3.82009139  4.5836064   4.97495744
  6.96232116  7.69835952  8.20886634  8.54200673  9.99933489 10.72553144
 12.85978911 -0.77073009  0.03701939  0.12789416  0.17048625  0.28416715
  0.37311726  0.45997589  0.52382725  0.73408834  0.91211586  1.03382469
  1.22686106  1.62765683  1.71801991  1.9097202   2.25585536  2.76635853
  3.05721205  3.24329988  3.83822478  4.23711393  4.43826024  5.23710081
  5.74592028  7.80651105  7.90599356  8.32915992  9.08816887  9.70243473
 10.16685008 12.05323578 14.52470058 21.27060567 -0.41110753  0.10666769
  0.25822641  0.4492519   0.54476453  0.76858962  1.04992169  1.27024886
  1.70814839  2.10528051  2.30183613  2.5082097   3.324414    3.6465633
  3.85405241  5.22174091  6.28147965  6.67974294  7.6710613   8.23438606
  8.8623956  10.04316865 11.84733074 -0.41110753  0.10666769  0.25822641
  0.4492519   0.54476453  0.76858962  1.04992169  1.27024886  1.70814839
  2.10528051  2.30183613  2.5082097   3.324414    3.6465633   3.85405241
  5.22174091  6.28147965  6.67974294  7.6710613   8.23438606  8.8623956
 10.04316865 11.84733074  0.27957194  0.75585762  0.80789563  1.75320485
  2.00321491  2.22505704  3.24884251  3.48986633  4.25688733  6.03302029
  7.10041594  7.50624348  8.26484531  9.50049761  0.27957194  0.75585762
  0.80789563  1.75320485  2.00321491  2.22505704  3.24884251  3.48986633
  4.25688733  6.03302029  7.10041594  7.50624348  8.26484531  9.50049761
  1.57894091  2.2046441   3.30343468  3.61870504  6.61136736  7.44803441
  7.56490296  1.57894091  2.2046441   3.30343468  3.61870504  6.61136736
  7.44803441  7.56490296  0.35987512  0.87166777  0.99477142  1.89766726
  2.13984965  2.42973092  3.51220429  3.87394062  4.30028904  7.24527711
  7.72280618  8.03057575  8.97892062  9.61165413  0.35987512  0.87166777
  0.99477142  1.89766726  2.13984965  2.42973092  3.51220429  3.87394062
  4.30028904  7.24527711  7.72280618  8.03057575  8.97892062  9.61165413
  1.32206984  1.97405687  2.71078265  3.246624    5.78860136  7.15025603
  7.32879194  1.32206984  1.97405687  2.71078265  3.246624    5.78860136
  7.15025603  7.32879194  2.0171577   5.91521778  2.0171577   5.91521778
  2.34645018  6.21990747  2.34645018  6.21990747]
    CPU time for vj and vk     61.89 sec, wall time      7.75 sec
E1 = -43.70290627586451  Ecoul = 18.536900230625893
cycle= 5 E= -12.1159693254751  delta_E= -1.93e-06  |g|= 0.000381  |ddm|= 0.00455
    CPU time for cycle= 5     62.08 sec, wall time      7.80 sec
HOMO (E1ux) = -0.411043379849249  LUMO (A1g) = 0.0305585237351213
double occ irrep_nelec = [2, 0, 0, 1, 1, 1, 0, 0, 0, 0, 0, 0, 0, 0, 0, 0, 0, 0]
single occ irrep_nelec = [0, 0, 0, 0, 0, 0, 0, 0, 0, 0, 0, 0, 0, 0, 0, 0, 0, 0]
  Roothaan mo_energy =
[-1.03938652 -0.68235754  0.03055852  0.11218616  0.13449815  0.29174312
  0.32302273  0.37280978  0.62338388  0.7127474   0.82407512  0.95794958
  1.38127299  1.55717464  1.67767501  2.0341093   2.6229102   2.7150294
  3.01285468  3.42868312  3.96481988  4.30840642  4.65305689  5.47813159
  6.43602249  7.18541336  7.99516055  8.46584962  9.80306763 10.12303561
 12.07213849 14.08539451 20.15324062  0.10206003  0.2025033   0.33742096
  0.45198617  0.7788918   0.86404017  1.13433264  1.58454676  2.02574814
  2.0410158   2.57025596  3.04826326  3.59368448  3.82010569  4.5835854
  4.97492813  6.96237     7.6984612   8.20878678  8.54198292  9.99934034
 10.72547214 12.8597734   0.10206003  0.2025033   0.33742096  0.45198617
  0.7788918   0.86404017  1.13433264  1.58454676  2.02574814  2.0410158
  2.57025596  3.04826326  3.59368448  3.82010569  4.5835854   4.97492813
  6.96237     7.6984612   8.20878678  8.54198292  9.99934034 10.72547214
 12.8597734  -0.77074356  0.03701011  0.12787718  0.17048404  0.28414937
  0.37311611  0.45996468  0.52382251  0.73407988  0.91208577  1.0338125
  1.22683886  1.62764638  1.71801214  1.90969189  2.2558102   2.76634145
  3.05719447  3.2432793   3.83821431  4.23710271  4.43826281  5.23708531
  5.74592528  7.80656412  7.90599528  8.329191    9.08812638  9.70239721
 10.16681752 12.05321727 14.52474843 21.27073139 -0.41104338  0.10668369
  0.25820785  0.44928325  0.54476351  0.76856345  1.04990859  1.27026896
  1.70815985  2.10529119  2.30175997  2.50820222  3.32442922  3.64655549
  3.85402848  5.22172102  6.28151767  6.67978597  7.67112091  8.23429131
  8.86240745 10.04310362 11.84732192 -0.41104338  0.10668369  0.25820785
  0.44928325  0.54476351  0.76856345  1.04990859  1.27026896  1.70815985
  2.10529119  2.30175997  2.50820222  3.32442922  3.64655549  3.85402848
  5.22172102  6.28151767  6.67978597  7.67112091  8.23429131  8.86240745
 10.04310362 11.84732192  0.27958491  0.75583846  0.80791679  1.75320259
  2.00316496  2.22507872  3.24884057  3.48987335  4.25684498  6.03302738
  7.1004907   7.50626524  8.26479955  9.50040944  0.27958491  0.75583846
  0.80791679  1.75320259  2.00316496  2.22507872  3.24884057  3.48987335
  4.25684498  6.03302738  7.1004907   7.50626524  8.26479955  9.50040944
  1.57894875  2.20460881  3.30343814  3.61873596  6.61134169  7.44798873
  7.56495707  1.57894875  2.20460881  3.30343814  3.61873596  6.61134169
  7.44798873  7.56495707  0.35987966  0.87165322  0.99477619  1.89769615
  2.1398171   2.42967913  3.51223027  3.87390884  4.30030248  7.24527007
  7.72283439  8.03063204  8.97884992  9.61162332  0.35987966  0.87165322
  0.99477619  1.89769615  2.1398171   2.42967913  3.51223027  3.87390884
  4.30030248  7.24527007  7.72283439  8.03063204  8.97884992  9.61162332
  1.32209477  1.97402611  2.71077491  3.24665147  5.78861009  7.1502016
  7.32881046  1.32209477  1.97402611  2.71077491  3.24665147  5.78861009
  7.1502016   7.32881046  2.01719117  5.91524074  2.01719117  5.91524074
  2.34647828  6.21993152  2.34647828  6.21993152]
    CPU time for vj and vk     61.80 sec, wall time      7.74 sec
E1 = -43.70265420343005  Ecoul = 18.5366480534928
cycle= 6 E= -12.1159694301737  delta_E= -1.05e-07  |g|= 7.75e-05  |ddm|= 0.00102
    CPU time for cycle= 6     62.00 sec, wall time      7.80 sec
HOMO (E1ux) = -0.41105256842006  LUMO (A1g) = 0.0305571602962065
double occ irrep_nelec = [2, 0, 0, 1, 1, 1, 0, 0, 0, 0, 0, 0, 0, 0, 0, 0, 0, 0]
single occ irrep_nelec = [0, 0, 0, 0, 0, 0, 0, 0, 0, 0, 0, 0, 0, 0, 0, 0, 0, 0]
  Roothaan mo_energy =
[-1.03941356 -0.68238504  0.03055716  0.11218407  0.13449451  0.29173574
  0.32301853  0.37280626  0.62337355  0.71274146  0.8240696   0.9579427
  1.38126341  1.55716244  1.67766477  2.03409807  2.62289884  2.71501168
  3.01284121  3.42866513  3.96480341  4.30839338  4.653037    5.47810851
  6.43600193  7.1853946   7.99514024  8.46582998  9.803053   10.12301524
 12.07211784 14.08537476 20.15319916  0.10205664  0.20249373  0.33741795
  0.45197959  0.7788861   0.86403567  1.13432433  1.58454018  2.02573477
  2.0410055   2.57024463  3.04825035  3.59366949  3.82008933  4.58356624
  4.97491615  6.96235009  7.69843388  8.20876521  8.54195725  9.99932187
 10.72545635 12.85975194  0.10205664  0.20249373  0.33741795  0.45197959
  0.7788861   0.86403567  1.13432433  1.58454018  2.02573477  2.0410055
  2.57024463  3.04825035  3.59366949  3.82008933  4.58356624  4.97491615
  6.96235009  7.69843388  8.20876521  8.54195725  9.99932187 10.72545635
 12.85975194 -0.77076729  0.03700849  0.12787344  0.1704833   0.28414251
  0.37311293  0.45996096  0.52381684  0.73407321  0.91207687  1.03380712
  1.22682351  1.62763755  1.71799751  1.90968033  2.25579899  2.76632437
  3.05718351  3.24326688  3.83820392  4.23708856  4.43824464  5.23706513
  5.745908    7.8065473   7.90597247  8.32916316  9.08810624  9.70238347
 10.16679906 12.05320174 14.52472501 21.27068916 -0.41105257  0.10668496
  0.25820477  0.44928181  0.54476041  0.76855813  1.04989864  1.27026041
  1.708152    2.10527437  2.30174839  2.50818933  3.32441359  3.64653906
  3.85401336  5.22170308  6.28149733  6.67976139  7.67109377  8.23427365
  8.86238249 10.0430911  11.84730091 -0.41105257  0.10668496  0.25820477
  0.44928181  0.54476041  0.76855813  1.04989864  1.27026041  1.708152
  2.10527437  2.30174839  2.50818933  3.32441359  3.64653906  3.85401336
  5.22170308  6.28149733  6.67976139  7.67109377  8.23427365  8.86238249
 10.0430911  11.84730091  0.27958187  0.75583391  0.80790832  1.75319266
  2.00315395  2.22506474  3.2488257   3.48985753  4.25683386  6.03300525
  7.10045931  7.50624262  8.26478028  9.50039679  0.27958187  0.75583391
  0.80790832  1.75319266  2.00315395  2.22506474  3.2488257   3.48985753
  4.25683386  6.03300525  7.10045931  7.50624262  8.26478028  9.50039679
  1.57894204  2.20459985  3.30342932  3.61872129  6.61132262  7.4479696
  7.56493024  1.57894204  2.20459985  3.30342932  3.61872129  6.61132262
  7.4479696   7.56493024  0.35987878  0.87164787  0.9947712   1.89768565
  2.13980765  2.42966838  3.51221425  3.87389624  4.30028558  7.24525397
  7.7228038   8.03060674  8.97883105  9.61160582  0.35987878  0.87164787
  0.9947712   1.89768565  2.13980765  2.42966838  3.51221425  3.87389624
  4.30028558  7.24525397  7.7228038   8.03060674  8.97883105  9.61160582
  1.32208698  1.97401671  2.71076498  3.24663581  5.78858886  7.15018508
  7.32878368  1.32208698  1.97401671  2.71076498  3.24663581  5.78858886
  7.15018508  7.32878368  2.01718394  5.91521735  2.01718394  5.91521735
  2.34647237  6.21990792  2.34647237  6.21990792]
    CPU time for vj and vk     61.74 sec, wall time      7.72 sec
E1 = -43.70267627776193  Ecoul = 18.53667012390609
cycle= 7 E= -12.1159694340923  delta_E= -3.92e-09  |g|= 7.9e-06  |ddm|= 0.000219
    CPU time for cycle= 7     61.93 sec, wall time      7.78 sec
HOMO (E1ux) = -0.41105125117391  LUMO (A1g) = 0.0305570757198503
double occ irrep_nelec = [2, 0, 0, 1, 1, 1, 0, 0, 0, 0, 0, 0, 0, 0, 0, 0, 0, 0]
single occ irrep_nelec = [0, 0, 0, 0, 0, 0, 0, 0, 0, 0, 0, 0, 0, 0, 0, 0, 0, 0]
  Roothaan mo_energy =
[-1.03941374 -0.68238527  0.03055708  0.11218393  0.13449432  0.29173543
  0.32301837  0.37280613  0.62337307  0.7127413   0.82406945  0.95794227
  1.38126298  1.5571623   1.67766425  2.03409759  2.62289818  2.71501113
  3.01284113  3.42866503  3.96480262  4.3083929   4.65303698  5.47810841
  6.43600216  7.18539475  7.99513931  8.46582853  9.80305165 10.12301448
 12.07211713 14.0853745  20.15320039  0.10205646  0.20249366  0.33741784
  0.45197987  0.77888578  0.86403585  1.13432425  1.58453997  2.02573484
  2.04100539  2.57024389  3.04824969  3.59366972  3.82008945  4.58356609
  4.97491548  6.96235024  7.69843478  8.20876399  8.54195697  9.9993212
 10.72545484 12.85975146  0.10205646  0.20249366  0.33741784  0.45197987
  0.77888578  0.86403585  1.13432425  1.58453997  2.02573484  2.04100539
  2.57024389  3.04824969  3.59366972  3.82008945  4.58356609  4.97491548
  6.96235024  7.69843478  8.20876399  8.54195697  9.9993212  10.72545484
 12.85975146 -0.77076714  0.03700841  0.12787326  0.17048326  0.28414229
  0.37311285  0.45996079  0.52381667  0.73407308  0.91207647  1.03380692
  1.2268231   1.62763753  1.71799719  1.90967965  2.25579838  2.76632408
  3.05718326  3.24326635  3.83820344  4.23708809  4.43824468  5.23706469
  5.74590774  7.80654718  7.90597226  8.3291635   9.08810528  9.70238217
 10.1667978  12.05320041 14.52472482 21.27069044 -0.41105125  0.10668503
  0.25820464  0.44928194  0.54476032  0.76855785  1.04989852  1.2702604
  1.70815188  2.10527445  2.30174746  2.50818904  3.32441355  3.64653881
  3.85401294  5.22170267  6.28149767  6.67976188  7.67109431  8.23427194
  8.86238228 10.04308928 11.84730027 -0.41105125  0.10668503  0.25820464
  0.44928194  0.54476032  0.76855785  1.04989852  1.2702604   1.70815188
  2.10527445  2.30174746  2.50818904  3.32441355  3.64653881  3.85401294
  5.22170267  6.28149767  6.67976188  7.67109431  8.23427194  8.86238228
 10.04308928 11.84730027  0.27958176  0.75583377  0.80790849  1.75319272
  2.00315333  2.22506487  3.24882562  3.48985759  4.2568333   6.03300545
  7.10046026  7.50624279  8.26477951  9.50039499  0.27958176  0.75583377
  0.80790849  1.75319272  2.00315333  2.22506487  3.24882562  3.48985759
  4.2568333   6.03300545  7.10046026  7.50624279  8.26477951  9.50039499
  1.57894217  2.20459963  3.30342923  3.61872163  6.61132233  7.44796908
  7.56493093  1.57894217  2.20459963  3.30342923  3.61872163  6.61132233
  7.44796908  7.56493093  0.35987878  0.87164779  0.99477118  1.89768593
  2.13980732  2.42966792  3.5122147   3.87389581  4.30028581  7.24525358
  7.72280419  8.03060747  8.97882982  9.61160508  0.35987878  0.87164779
  0.99477118  1.89768593  2.13980732  2.42966792  3.5122147   3.87389581
  4.30028581  7.24525358  7.72280419  8.03060747  8.97882982  9.61160508
  1.3220869   1.97401659  2.71076481  3.24663591  5.7885891   7.15018435
  7.32878394  1.3220869   1.97401659  2.71076481  3.24663591  5.7885891
  7.15018435  7.32878394  2.01718379  5.91521767  2.01718379  5.91521767
  2.3464725   6.21990831  2.3464725   6.21990831]
    CPU time for vj and vk     60.67 sec, wall time      7.60 sec
E1 = -43.70267345724638  Ecoul = 18.536667303346373
cycle= 8 E= -12.1159694341365  delta_E= -4.42e-11  |g|= 9.86e-07  |ddm|= 3.79e-05
    CPU time for cycle= 8     60.86 sec, wall time      7.65 sec
HOMO (E1ux) = -0.411051324295958  LUMO (A1g) = 0.0305570752596246
double occ irrep_nelec = [2, 0, 0, 1, 1, 1, 0, 0, 0, 0, 0, 0, 0, 0, 0, 0, 0, 0]
single occ irrep_nelec = [0, 0, 0, 0, 0, 0, 0, 0, 0, 0, 0, 0, 0, 0, 0, 0, 0, 0]
  Roothaan mo_energy =
[-1.03941391 -0.68238552  0.03055708  0.11218392  0.13449431  0.29173537
  0.32301836  0.37280612  0.62337299  0.71274126  0.82406942  0.95794223
  1.38126291  1.55716223  1.67766416  2.03409752  2.62289812  2.715011
  3.01284103  3.42866492  3.96480247  4.30839277  4.65303684  5.47810828
  6.43600208  7.18539458  7.99513913  8.46582832  9.80305141 10.12301426
 12.07211693 14.08537431 20.15320021  0.10205643  0.20249356  0.33741784
  0.45197984  0.77888575  0.86403582  1.1343242   1.58453992  2.02573477
  2.04100531  2.57024385  3.04824959  3.59366959  3.82008935  4.58356597
  4.97491535  6.96235005  7.69843459  8.20876384  8.54195684  9.99932098
 10.7254546  12.85975127  0.10205643  0.20249356  0.33741784  0.45197984
  0.77888575  0.86403582  1.1343242   1.58453992  2.02573477  2.04100531
  2.57024385  3.04824959  3.59366959  3.82008935  4.58356597  4.97491535
  6.96235005  7.69843459  8.20876384  8.54195684  9.99932098 10.7254546
 12.85975127 -0.77076734  0.03700841  0.12787326  0.17048326  0.28414227
  0.37311285  0.45996079  0.52381665  0.73407306  0.91207644  1.0338069
  1.22682302  1.62763749  1.71799712  1.90967956  2.25579832  2.766324
  3.05718319  3.24326625  3.83820331  4.23708797  4.43824457  5.23706454
  5.74590761  7.80654697  7.90597209  8.32916335  9.0881051   9.70238195
 10.1667976  12.05320014 14.52472465 21.27069029 -0.41105132  0.10668502
  0.25820464  0.44928191  0.54476029  0.76855782  1.04989846  1.27026033
  1.70815181  2.10527436  2.30174741  2.50818893  3.32441344  3.6465387
  3.85401282  5.22170252  6.28149754  6.67976176  7.67109415  8.23427173
  8.8623821  10.04308902 11.84730006 -0.41105132  0.10668502  0.25820464
  0.44928191  0.54476029  0.76855782  1.04989846  1.27026033  1.70815181
  2.10527436  2.30174741  2.50818893  3.32441344  3.6465387   3.85401282
  5.22170252  6.28149754  6.67976176  7.67109415  8.23427173  8.8623821
 10.04308902 11.84730006  0.27958173  0.75583375  0.80790841  1.75319265
  2.00315328  2.22506477  3.24882552  3.48985748  4.25683321  6.03300533
  7.10046008  7.50624265  8.26477933  9.50039476  0.27958173  0.75583375
  0.80790841  1.75319265  2.00315328  2.22506477  3.24882552  3.48985748
  4.25683321  6.03300533  7.10046008  7.50624265  8.26477933  9.50039476
  1.57894212  2.2045996   3.30342916  3.6187215   6.61132218  7.44796892
  7.56493075  1.57894212  2.2045996   3.30342916  3.6187215   6.61132218
  7.44796892  7.56493075  0.35987877  0.87164776  0.99477115  1.89768584
  2.13980726  2.42966787  3.5122146   3.87389571  4.30028568  7.24525341
  7.72280403  8.03060731  8.97882962  9.61160488  0.35987877  0.87164776
  0.99477115  1.89768584  2.13980726  2.42966787  3.5122146   3.87389571
  4.30028568  7.24525341  7.72280403  8.03060731  8.97882962  9.61160488
  1.32208682  1.97401655  2.71076475  3.24663579  5.78858896  7.15018419
  7.32878377  1.32208682  1.97401655  2.71076475  3.24663579  5.78858896
  7.15018419  7.32878377  2.0171837   5.9152175   2.0171837   5.9152175
  2.34647244  6.21990814  2.34647244  6.21990814]
    CPU time for vj and vk     57.41 sec, wall time      7.18 sec
E1 = -43.702673329673416  Ecoul = 18.536667175772877
Extra cycle  E= -12.115969434137  delta_E= -5.36e-13  |g|= 3.26e-07  |ddm|= 2.37e-06
    CPU time for scf_cycle    614.14 sec, wall time     77.15 sec
    CPU time for SCF    614.14 sec, wall time     77.15 sec
converged SCF energy = -12.115969434137
**** SCF Summaries ****
Total Energy =                         -12.115969434137025
Nuclear Repulsion Energy =              13.050036719763515
One-electron Energy =                  -43.702673329673416
Two-electron Energy =                   18.536667175772877
TODO: total wave-function symmetry for Dooh
occupancy for each irrep:    A1g E1gx E1gy  A1u E1uy E1ux E2gx E2gy E3gx E3gy E2uy E2ux E3uy E3ux E4gx E4gy E4uy E4ux
double occ                     2    0    0    1    1    1    0    0    0    0    0    0    0    0    0    0    0    0
single occ                     0    0    0    0    0    0    0    0    0    0    0    0    0    0    0    0    0    0
**** MO energy ****
                          Roothaan           | alpha              | beta
MO #1   (A1g #1 ) energy= -1.03941391472816  | -1.03941391472816  | -1.03941391472816  occ= 2
MO #2   (A1u #1 ) energy= -0.770767340654701 | -0.7707673406547   | -0.7707673406547   occ= 2
MO #3   (A1g #2 ) energy= -0.682385521302265 | -0.682385521302263 | -0.682385521302263 occ= 2
MO #4   (E1uy #1 ) energy= -0.41105132429596  | -0.41105132429596  | -0.41105132429596  occ= 2
MO #5   (E1ux #1 ) energy= -0.411051324295958 | -0.411051324295958 | -0.411051324295958 occ= 2
MO #6   (A1g #3 ) energy= 0.0305570752596246 | 0.0305570752594369 | 0.0305570752594369 occ= 0
MO #7   (A1u #2 ) energy= 0.0370084092272881 | 0.0370084092275786 | 0.0370084092275786 occ= 0
MO #8   (E1gx #1 ) energy= 0.102056425643434  | 0.102056425643433  | 0.102056425643433  occ= 0
MO #9   (E1gy #1 ) energy= 0.102056425643454  | 0.102056425643453  | 0.102056425643453  occ= 0
MO #10  (E1uy #2 ) energy= 0.106685020941867  | 0.106685020941867  | 0.106685020941867  occ= 0
MO #11  (E1ux #2 ) energy= 0.106685020941872  | 0.106685020941867  | 0.106685020941867  occ= 0
MO #12  (A1g #4 ) energy= 0.112183919833058  | 0.112183919832986  | 0.112183919832986  occ= 0
MO #13  (A1u #3 ) energy= 0.12787325816663   | 0.127873258171048  | 0.127873258171048  occ= 0
MO #14  (A1g #5 ) energy= 0.134494314372877  | 0.134494314372071  | 0.134494314372071  occ= 0
MO #15  (A1u #4 ) energy= 0.170483264387488  | 0.170483264387835  | 0.170483264387835  occ= 0
MO #16  (E1gx #2 ) energy= 0.20249355852479   | 0.202493558524788  | 0.202493558524788  occ= 0
MO #17  (E1gy #2 ) energy= 0.202493558524811  | 0.20249355852481   | 0.20249355852481   occ= 0
MO #18  (E1uy #3 ) energy= 0.258204638814425  | 0.258204638814435  | 0.258204638814435  occ= 0
MO #19  (E1ux #3 ) energy= 0.258204638814432  | 0.25820463881444   | 0.25820463881444   occ= 0
MO #20  (E2gx #1 ) energy= 0.27958173272391   | 0.279581732723908  | 0.279581732723908  occ= 0
MO #21  (E2gy #1 ) energy= 0.279581732723908  | 0.279581732723907  | 0.279581732723907  occ= 0
MO #22  (A1u #5 ) energy= 0.284142273690514  | 0.284142273703318  | 0.284142273703318  occ= 0
MO #23  (A1g #6 ) energy= 0.291735369629854  | 0.291735369629808  | 0.291735369629808  occ= 0
MO #24  (A1g #7 ) energy= 0.323018361181354  | 0.323018361180343  | 0.323018361180343  occ= 0
MO #25  (E1gx #3 ) energy= 0.33741783830018   | 0.337417838300103  | 0.337417838300103  occ= 0
MO #26  (E1gy #3 ) energy= 0.337417838300128  | 0.337417838300147  | 0.337417838300147  occ= 0
MO #27  (E2uy #1 ) energy= 0.359878768150603  | 0.359878768150602  | 0.359878768150602  occ= 0
MO #28  (E2ux #1 ) energy= 0.359878768150617  | 0.359878768150616  | 0.359878768150616  occ= 0
MO #29  (A1g #8 ) energy= 0.372806120031524  | 0.372806120029887  | 0.372806120029887  occ= 0
MO #30  (A1u #6 ) energy= 0.373112848774187  | 0.373112848776059  | 0.373112848776059  occ= 0
MO #31  (E1uy #4 ) energy= 0.449281913134951  | 0.44928191313496   | 0.44928191313496   occ= 0
MO #32  (E1ux #4 ) energy= 0.449281913134936  | 0.449281913134941  | 0.449281913134941  occ= 0
MO #33  (E1gx #4 ) energy= 0.451979836205636  | 0.45197983620559   | 0.45197983620559   occ= 0
MO #34  (E1gy #4 ) energy= 0.451979836205756  | 0.451979836205743  | 0.451979836205743  occ= 0
MO #35  (A1u #7 ) energy= 0.459960787987382  | 0.459960787990122  | 0.459960787990122  occ= 0
MO #36  (A1u #8 ) energy= 0.523816653716908  | 0.523816653709184  | 0.523816653709184  occ= 0
MO #37  (E1uy #5 ) energy= 0.54476028832112   | 0.544760288321129  | 0.544760288321129  occ= 0
MO #38  (E1ux #5 ) energy= 0.544760288321044  | 0.544760288321058  | 0.544760288321058  occ= 0
MO #39  (A1g #9 ) energy= 0.62337299243473   | 0.623372992434655  | 0.623372992434655  occ= 0
MO #40  (A1g #10) energy= 0.712741258297294  | 0.712741258293772  | 0.712741258293772  occ= 0
MO #41  (A1u #9 ) energy= 0.734073063950548  | 0.734073063950719  | 0.734073063950719  occ= 0
MO #42  (E2gx #2 ) energy= 0.755833754835381  | 0.755833754835381  | 0.755833754835381  occ= 0
MO #43  (E2gy #2 ) energy= 0.75583375483538   | 0.75583375483538   | 0.75583375483538   occ= 0
MO #44  (E1uy #6 ) energy= 0.768557817900326  | 0.768557817900342  | 0.768557817900342  occ= 0
MO #45  (E1ux #6 ) energy= 0.768557817900334  | 0.768557817900353  | 0.768557817900353  occ= 0
MO #46  (E1gx #5 ) energy= 0.778885750185097  | 0.778885750185027  | 0.778885750185027  occ= 0
MO #47  (E1gy #5 ) energy= 0.778885750185177  | 0.778885750185251  | 0.778885750185251  occ= 0
MO #48  (E2gx #3 ) energy= 0.807908413764235  | 0.807908413764232  | 0.807908413764232  occ= 0
MO #49  (E2gy #3 ) energy= 0.807908413764232  | 0.807908413764237  | 0.807908413764237  occ= 0
MO #50  (A1g #11) energy= 0.824069424596893  | 0.824069424593731  | 0.824069424593731  occ= 0
MO #51  (E1gx #6 ) energy= 0.864035815311538  | 0.864035815311422  | 0.864035815311422  occ= 0
MO #52  (E1gy #6 ) energy= 0.864035815311877  | 0.864035815311842  | 0.864035815311842  occ= 0
MO #53  (E2uy #2 ) energy= 0.871647759227852  | 0.871647759227853  | 0.871647759227853  occ= 0
MO #54  (E2ux #2 ) energy= 0.871647759227878  | 0.871647759227876  | 0.871647759227876  occ= 0
MO #55  (A1u #10) energy= 0.912076443590976  | 0.912076443590756  | 0.912076443590756  occ= 0
MO #56  (A1g #12) energy= 0.957942229484467  | 0.95794222948416   | 0.95794222948416   occ= 0
MO #57  (E2uy #3 ) energy= 0.994771149363397  | 0.994771149363395  | 0.994771149363395  occ= 0
MO #58  (E2ux #3 ) energy= 0.994771149363427  | 0.994771149363425  | 0.994771149363425  occ= 0
MO #59  (A1u #11) energy= 1.03380689994538   | 1.03380689994662   | 1.03380689994662   occ= 0
MO #60  (E1uy #7 ) energy= 1.04989845930871   | 1.04989845930874   | 1.04989845930874   occ= 0
MO #61  (E1ux #7 ) energy= 1.0498984593087    | 1.04989845930872   | 1.04989845930872   occ= 0
MO #62  (E1gx #7 ) energy= 1.13432420307213   | 1.13432420307214   | 1.13432420307214   occ= 0
MO #63  (E1gy #7 ) energy= 1.13432420307223   | 1.13432420307223   | 1.13432420307223   occ= 0
MO #64  (A1u #12) energy= 1.22682302354923   | 1.22682302354896   | 1.22682302354896   occ= 0
MO #65  (E1uy #8 ) energy= 1.27026032582278   | 1.2702603258228    | 1.2702603258228    occ= 0
MO #66  (E1ux #8 ) energy= 1.27026032582278   | 1.27026032582278   | 1.27026032582278   occ= 0
MO #67  (E3uy #1 ) energy= 1.3220868215311    | 1.32208682153111   | 1.32208682153111   occ= 0
MO #68  (E3ux #1 ) energy= 1.3220868215311    | 1.32208682153111   | 1.32208682153111   occ= 0
MO #69  (A1g #13) energy= 1.38126291125785   | 1.38126291125608   | 1.38126291125608   occ= 0
MO #70  (A1g #14) energy= 1.55716223176129   | 1.55716223175742   | 1.55716223175742   occ= 0
MO #71  (E3gx #1 ) energy= 1.57894212270533   | 1.57894212270532   | 1.57894212270532   occ= 0
MO #72  (E3gy #1 ) energy= 1.57894212270533   | 1.57894212270533   | 1.57894212270533   occ= 0
MO #73  (E1gx #8 ) energy= 1.58453991657106   | 1.58453991657098   | 1.58453991657098   occ= 0
MO #74  (E1gy #8 ) energy= 1.5845399165719    | 1.584539916572     | 1.584539916572     occ= 0
MO #75  (A1u #13) energy= 1.62763748649137   | 1.62763748648659   | 1.62763748648659   occ= 0
MO #76  (A1g #15) energy= 1.67766415807528   | 1.67766415807474   | 1.67766415807474   occ= 0
MO #77  (E1uy #9 ) energy= 1.70815180820136   | 1.70815180820149   | 1.70815180820149   occ= 0
MO #78  (E1ux #9 ) energy= 1.70815180820149   | 1.70815180820153   | 1.70815180820153   occ= 0
MO #79  (A1u #14) energy= 1.71799712409994   | 1.71799712409412   | 1.71799712409412   occ= 0
MO #80  (E2gx #4 ) energy= 1.75319265004665   | 1.75319265004665   | 1.75319265004665   occ= 0
MO #81  (E2gy #4 ) energy= 1.7531926500465    | 1.75319265004653   | 1.75319265004653   occ= 0
MO #82  (E2uy #4 ) energy= 1.8976858415702    | 1.8976858415702    | 1.8976858415702    occ= 0
MO #83  (E2ux #4 ) energy= 1.89768584157037   | 1.89768584157033   | 1.89768584157033   occ= 0
MO #84  (A1u #15) energy= 1.90967956089931   | 1.9096795608888    | 1.9096795608888    occ= 0
MO #85  (E3uy #2 ) energy= 1.97401654941825   | 1.97401654941825   | 1.97401654941825   occ= 0
MO #86  (E3ux #2 ) energy= 1.97401654941825   | 1.97401654941825   | 1.97401654941825   occ= 0
MO #87  (E2gx #5 ) energy= 2.00315327982569   | 2.00315327982569   | 2.00315327982569   occ= 0
MO #88  (E2gy #5 ) energy= 2.00315327982572   | 2.00315327982572   | 2.00315327982572   occ= 0
MO #89  (E4gx #1 ) energy= 2.01718370114793   | 2.01718370114793   | 2.01718370114793   occ= 0
MO #90  (E4gy #1 ) energy= 2.01718370114793   | 2.01718370114793   | 2.01718370114793   occ= 0
MO #91  (E1gx #9 ) energy= 2.02573477188006   | 2.02573477188004   | 2.02573477188004   occ= 0
MO #92  (E1gy #9 ) energy= 2.02573477188014   | 2.02573477188016   | 2.02573477188016   occ= 0
MO #93  (A1g #16) energy= 2.03409752446004   | 2.03409752445935   | 2.03409752445935   occ= 0
MO #94  (E1gx #10) energy= 2.04100531263681   | 2.04100531263685   | 2.04100531263685   occ= 0
MO #95  (E1gy #10) energy= 2.04100531263666   | 2.0410053126367    | 2.0410053126367    occ= 0
MO #96  (E1uy #10) energy= 2.10527435655038   | 2.10527435655039   | 2.10527435655039   occ= 0
MO #97  (E1ux #10) energy= 2.10527435655034   | 2.10527435655037   | 2.10527435655037   occ= 0
MO #98  (E2uy #5 ) energy= 2.13980725745075   | 2.13980725745077   | 2.13980725745077   occ= 0
MO #99  (E2ux #5 ) energy= 2.13980725745089   | 2.13980725745087   | 2.13980725745087   occ= 0
MO #100 (E3gx #2 ) energy= 2.20459960216841   | 2.20459960216841   | 2.20459960216841   occ= 0
MO #101 (E3gy #2 ) energy= 2.20459960216841   | 2.20459960216841   | 2.20459960216841   occ= 0
MO #102 (E2gx #6 ) energy= 2.22506476560754   | 2.22506476560754   | 2.22506476560754   occ= 0
MO #103 (E2gy #6 ) energy= 2.22506476560754   | 2.22506476560754   | 2.22506476560754   occ= 0
MO #104 (A1u #16) energy= 2.25579831541304   | 2.25579831541305   | 2.25579831541305   occ= 0
MO #105 (E1uy #11) energy= 2.30174740735884   | 2.30174740735885   | 2.30174740735885   occ= 0
MO #106 (E1ux #11) energy= 2.30174740735886   | 2.30174740735887   | 2.30174740735887   occ= 0
MO #107 (E4uy #1 ) energy= 2.34647243569066   | 2.34647243569066   | 2.34647243569066   occ= 0
MO #108 (E4ux #1 ) energy= 2.34647243569066   | 2.34647243569066   | 2.34647243569066   occ= 0
MO #109 (E2uy #6 ) energy= 2.4296678740274    | 2.4296678740274    | 2.4296678740274    occ= 0
MO #110 (E2ux #6 ) energy= 2.4296678740274    | 2.42966787402739   | 2.42966787402739   occ= 0
MO #111 (E1uy #12) energy= 2.50818893029449   | 2.50818893029454   | 2.50818893029454   occ= 0
MO #112 (E1ux #12) energy= 2.50818893029454   | 2.50818893029455   | 2.50818893029455   occ= 0
MO #113 (E1gx #11) energy= 2.57024384746435   | 2.57024384746433   | 2.57024384746433   occ= 0
MO #114 (E1gy #11) energy= 2.57024384746477   | 2.5702438474648    | 2.5702438474648    occ= 0
MO #115 (A1g #17) energy= 2.62289812412018   | 2.62289812411984   | 2.62289812411984   occ= 0
MO #116 (E3uy #3 ) energy= 2.71076474582537   | 2.71076474582538   | 2.71076474582538   occ= 0
MO #117 (E3ux #3 ) energy= 2.71076474582537   | 2.71076474582538   | 2.71076474582538   occ= 0
MO #118 (A1g #18) energy= 2.71501099500189   | 2.7150109950017    | 2.7150109950017    occ= 0
MO #119 (A1u #17) energy= 2.76632399883805   | 2.76632399883467   | 2.76632399883467   occ= 0
MO #120 (A1g #19) energy= 3.01284103480517   | 3.01284103479903   | 3.01284103479903   occ= 0
MO #121 (E1gx #12) energy= 3.048249590427     | 3.04824959042694   | 3.04824959042694   occ= 0
MO #122 (E1gy #12) energy= 3.04824959042768   | 3.04824959042776   | 3.04824959042776   occ= 0
MO #123 (A1u #18) energy= 3.05718319155693   | 3.0571831915577    | 3.0571831915577    occ= 0
MO #124 (A1u #19) energy= 3.24326625052975   | 3.24326625054541   | 3.24326625054541   occ= 0
MO #125 (E3uy #4 ) energy= 3.24663578548839   | 3.24663578548839   | 3.24663578548839   occ= 0
MO #126 (E3ux #4 ) energy= 3.24663578548837   | 3.24663578548839   | 3.24663578548839   occ= 0
MO #127 (E2gx #7 ) energy= 3.24882551554557   | 3.24882551554557   | 3.24882551554557   occ= 0
MO #128 (E2gy #7 ) energy= 3.24882551554555   | 3.24882551554555   | 3.24882551554555   occ= 0
MO #129 (E3gx #3 ) energy= 3.30342916232482   | 3.30342916232482   | 3.30342916232482   occ= 0
MO #130 (E3gy #3 ) energy= 3.30342916232483   | 3.30342916232482   | 3.30342916232482   occ= 0
MO #131 (E1uy #13) energy= 3.32441343878125   | 3.32441343878143   | 3.32441343878143   occ= 0
MO #132 (E1ux #13) energy= 3.32441343878158   | 3.32441343878161   | 3.32441343878161   occ= 0
MO #133 (A1g #20) energy= 3.42866491823525   | 3.42866491823465   | 3.42866491823465   occ= 0
MO #134 (E2gx #8 ) energy= 3.48985748147169   | 3.48985748147167   | 3.48985748147167   occ= 0
MO #135 (E2gy #8 ) energy= 3.48985748147112   | 3.48985748147115   | 3.48985748147115   occ= 0
MO #136 (E2uy #7 ) energy= 3.51221459752306   | 3.51221459752305   | 3.51221459752305   occ= 0
MO #137 (E2ux #7 ) energy= 3.51221459752345   | 3.51221459752333   | 3.51221459752333   occ= 0
MO #138 (E1gx #13) energy= 3.59366958808814   | 3.59366958808837   | 3.59366958808837   occ= 0
MO #139 (E1gy #13) energy= 3.59366958808808   | 3.59366958808828   | 3.59366958808828   occ= 0
MO #140 (E3gx #4 ) energy= 3.61872150419224   | 3.61872150419222   | 3.61872150419222   occ= 0
MO #141 (E3gy #4 ) energy= 3.61872150419229   | 3.61872150419227   | 3.61872150419227   occ= 0
MO #142 (E1uy #14) energy= 3.64653870431619   | 3.64653870431621   | 3.64653870431621   occ= 0
MO #143 (E1ux #14) energy= 3.64653870431617   | 3.64653870431619   | 3.64653870431619   occ= 0
MO #144 (E1gx #14) energy= 3.8200893497552    | 3.82008934975515   | 3.82008934975515   occ= 0
MO #145 (E1gy #14) energy= 3.82008934975506   | 3.82008934975514   | 3.82008934975514   occ= 0
MO #146 (A1u #20) energy= 3.83820331479913   | 3.83820331480179   | 3.83820331480179   occ= 0
MO #147 (E1uy #15) energy= 3.85401281868051   | 3.85401281868059   | 3.85401281868059   occ= 0
MO #148 (E1ux #15) energy= 3.85401281868068   | 3.85401281868071   | 3.85401281868071   occ= 0
MO #149 (E2uy #8 ) energy= 3.87389571083987   | 3.87389571083989   | 3.87389571083989   occ= 0
MO #150 (E2ux #8 ) energy= 3.87389571084002   | 3.87389571084      | 3.87389571084      occ= 0
MO #151 (A1g #21) energy= 3.96480246650174   | 3.96480246650027   | 3.96480246650027   occ= 0
MO #152 (A1u #21) energy= 4.2370879677768    | 4.23708796778657   | 4.23708796778657   occ= 0
MO #153 (E2gx #9 ) energy= 4.25683320863393   | 4.25683320863394   | 4.25683320863394   occ= 0
MO #154 (E2gy #9 ) energy= 4.25683320863398   | 4.25683320863397   | 4.25683320863397   occ= 0
MO #155 (E2uy #9 ) energy= 4.30028568078623   | 4.30028568078625   | 4.30028568078625   occ= 0
MO #156 (E2ux #9 ) energy= 4.30028568078699   | 4.30028568078689   | 4.30028568078689   occ= 0
MO #157 (A1g #22) energy= 4.30839276985873   | 4.30839276985824   | 4.30839276985824   occ= 0
MO #158 (A1u #22) energy= 4.43824456547186   | 4.43824456547185   | 4.43824456547185   occ= 0
MO #159 (E1gx #15) energy= 4.58356597293997   | 4.58356597293995   | 4.58356597293995   occ= 0
MO #160 (E1gy #15) energy= 4.58356597293993   | 4.58356597293998   | 4.58356597293998   occ= 0
MO #161 (A1g #23) energy= 4.65303684439489   | 4.65303684439489   | 4.65303684439489   occ= 0
MO #162 (E1gx #16) energy= 4.97491534599577   | 4.97491534599568   | 4.97491534599568   occ= 0
MO #163 (E1gy #16) energy= 4.97491534599632   | 4.97491534599633   | 4.97491534599633   occ= 0
MO #164 (E1uy #16) energy= 5.22170252006541   | 5.22170252006545   | 5.22170252006545   occ= 0
MO #165 (E1ux #16) energy= 5.22170252006537   | 5.22170252006538   | 5.22170252006538   occ= 0
MO #166 (A1u #23) energy= 5.2370645397651    | 5.23706453976432   | 5.23706453976432   occ= 0
MO #167 (A1g #24) energy= 5.47810827948201   | 5.47810827948156   | 5.47810827948156   occ= 0
MO #168 (A1u #24) energy= 5.74590760619823   | 5.74590760627821   | 5.74590760627821   occ= 0
MO #169 (E3uy #5 ) energy= 5.78858895763432   | 5.78858895763432   | 5.78858895763432   occ= 0
MO #170 (E3ux #5 ) energy= 5.78858895763431   | 5.78858895763432   | 5.78858895763432   occ= 0
MO #171 (E4gx #2 ) energy= 5.91521749816571   | 5.91521749816571   | 5.91521749816571   occ= 0
MO #172 (E4gy #2 ) energy= 5.91521749816569   | 5.91521749816569   | 5.91521749816569   occ= 0
MO #173 (E2gx #10) energy= 6.03300532734316   | 6.03300532734316   | 6.03300532734316   occ= 0
MO #174 (E2gy #10) energy= 6.03300532734312   | 6.03300532734314   | 6.03300532734314   occ= 0
MO #175 (E4uy #2 ) energy= 6.21990814226632   | 6.21990814226633   | 6.21990814226633   occ= 0
MO #176 (E4ux #2 ) energy= 6.21990814226635   | 6.21990814226634   | 6.21990814226634   occ= 0
MO #177 (E1uy #17) energy= 6.28149754420453   | 6.28149754420454   | 6.28149754420454   occ= 0
MO #178 (E1ux #17) energy= 6.28149754420455   | 6.28149754420455   | 6.28149754420455   occ= 0
MO #179 (A1g #25) energy= 6.43600207709283   | 6.43600207709165   | 6.43600207709165   occ= 0
MO #180 (E3gx #5 ) energy= 6.61132217962379   | 6.61132217962379   | 6.61132217962379   occ= 0
MO #181 (E3gy #5 ) energy= 6.61132217962379   | 6.61132217962379   | 6.61132217962379   occ= 0
MO #182 (E1uy #18) energy= 6.67976176312995   | 6.67976176312999   | 6.67976176312999   occ= 0
MO #183 (E1ux #18) energy= 6.67976176313003   | 6.67976176313005   | 6.67976176313005   occ= 0
MO #184 (E1gx #17) energy= 6.96235005069942   | 6.96235005069942   | 6.96235005069942   occ= 0
MO #185 (E1gy #17) energy= 6.96235005069949   | 6.9623500506995    | 6.9623500506995    occ= 0
MO #186 (E2gx #11) energy= 7.10046007623583   | 7.10046007623583   | 7.10046007623583   occ= 0
MO #187 (E2gy #11) energy= 7.10046007623576   | 7.10046007623577   | 7.10046007623577   occ= 0
MO #188 (E3uy #6 ) energy= 7.15018419290319   | 7.15018419290319   | 7.15018419290319   occ= 0
MO #189 (E3ux #6 ) energy= 7.15018419290319   | 7.1501841929032    | 7.1501841929032    occ= 0
MO #190 (A1g #26) energy= 7.18539458163122   | 7.18539458163076   | 7.18539458163076   occ= 0
MO #191 (E2uy #10) energy= 7.24525340579236   | 7.24525340579236   | 7.24525340579236   occ= 0
MO #192 (E2ux #10) energy= 7.24525340579311   | 7.24525340579304   | 7.24525340579304   occ= 0
MO #193 (E3uy #7 ) energy= 7.32878377306811   | 7.32878377306812   | 7.32878377306812   occ= 0
MO #194 (E3ux #7 ) energy= 7.32878377306809   | 7.32878377306811   | 7.32878377306811   occ= 0
MO #195 (E3gx #6 ) energy= 7.44796892499554   | 7.44796892499554   | 7.44796892499554   occ= 0
MO #196 (E3gy #6 ) energy= 7.44796892499554   | 7.44796892499555   | 7.44796892499555   occ= 0
MO #197 (E2gx #12) energy= 7.50624264637871   | 7.50624264637867   | 7.50624264637867   occ= 0
MO #198 (E2gy #12) energy= 7.50624264637774   | 7.50624264637778   | 7.50624264637778   occ= 0
MO #199 (E3gx #7 ) energy= 7.56493074959979   | 7.56493074959977   | 7.56493074959977   occ= 0
MO #200 (E3gy #7 ) energy= 7.56493074959983   | 7.56493074959982   | 7.56493074959982   occ= 0
MO #201 (E1uy #19) energy= 7.67109414531199   | 7.67109414531224   | 7.67109414531224   occ= 0
MO #202 (E1ux #19) energy= 7.67109414531267   | 7.67109414531266   | 7.67109414531266   occ= 0
MO #203 (E1gx #18) energy= 7.69843458812606   | 7.69843458812616   | 7.69843458812616   occ= 0
MO #204 (E1gy #18) energy= 7.69843458812593   | 7.69843458812621   | 7.69843458812621   occ= 0
MO #205 (E2uy #11) energy= 7.72280402795923   | 7.72280402795924   | 7.72280402795924   occ= 0
MO #206 (E2ux #11) energy= 7.72280402795925   | 7.72280402795923   | 7.72280402795923   occ= 0
MO #207 (A1u #25) energy= 7.80654696639099   | 7.80654696640527   | 7.80654696640527   occ= 0
MO #208 (A1u #26) energy= 7.90597208570774   | 7.90597208571373   | 7.90597208571373   occ= 0
MO #209 (A1g #27) energy= 7.99513913429684   | 7.99513913429601   | 7.99513913429601   occ= 0
MO #210 (E2uy #12) energy= 8.03060730715355   | 8.03060730715353   | 8.03060730715353   occ= 0
MO #211 (E2ux #12) energy= 8.03060730715473   | 8.03060730715464   | 8.03060730715464   occ= 0
MO #212 (E1gx #19) energy= 8.20876383794465   | 8.20876383794462   | 8.20876383794462   occ= 0
MO #213 (E1gy #19) energy= 8.20876383794467   | 8.20876383794468   | 8.20876383794468   occ= 0
MO #214 (E1uy #20) energy= 8.23427173401497   | 8.23427173401498   | 8.23427173401498   occ= 0
MO #215 (E1ux #20) energy= 8.23427173401501   | 8.234271734015     | 8.234271734015     occ= 0
MO #216 (E2gx #13) energy= 8.26477932942543   | 8.26477932942543   | 8.26477932942543   occ= 0
MO #217 (E2gy #13) energy= 8.26477932942544   | 8.26477932942545   | 8.26477932942545   occ= 0
MO #218 (A1u #27) energy= 8.32916334784519   | 8.32916334784407   | 8.32916334784407   occ= 0
MO #219 (A1g #28) energy= 8.46582832175785   | 8.46582832175777   | 8.46582832175777   occ= 0
MO #220 (E1gx #20) energy= 8.54195684405966   | 8.5419568440596    | 8.5419568440596    occ= 0
MO #221 (E1gy #20) energy= 8.5419568440597    | 8.54195684405977   | 8.54195684405977   occ= 0
MO #222 (E1uy #21) energy= 8.86238210456727   | 8.86238210456727   | 8.86238210456727   occ= 0
MO #223 (E1ux #21) energy= 8.86238210456727   | 8.86238210456725   | 8.86238210456725   occ= 0
MO #224 (E2uy #13) energy= 8.97882961706943   | 8.97882961706942   | 8.97882961706942   occ= 0
MO #225 (E2ux #13) energy= 8.97882961706967   | 8.97882961706964   | 8.97882961706964   occ= 0
MO #226 (A1u #28) energy= 9.08810510410388   | 9.08810510411958   | 9.08810510411958   occ= 0
MO #227 (E2gx #14) energy= 9.50039475874837   | 9.50039475874838   | 9.50039475874838   occ= 0
MO #228 (E2gy #14) energy= 9.50039475874839   | 9.50039475874838   | 9.50039475874838   occ= 0
MO #229 (E2uy #14) energy= 9.61160487583451   | 9.61160487583452   | 9.61160487583452   occ= 0
MO #230 (E2ux #14) energy= 9.61160487583451   | 9.6116048758345    | 9.6116048758345    occ= 0
MO #231 (A1u #29) energy= 9.70238194797848   | 9.70238194798855   | 9.70238194798855   occ= 0
MO #232 (A1g #29) energy= 9.80305141439233   | 9.80305141439038   | 9.80305141439038   occ= 0
MO #233 (E1gx #21) energy= 9.99932097608655   | 9.99932097608652   | 9.99932097608652   occ= 0
MO #234 (E1gy #21) energy= 9.99932097608669   | 9.99932097608668   | 9.99932097608668   occ= 0
MO #235 (E1uy #22) energy= 10.0430890208056   | 10.0430890208056   | 10.0430890208056   occ= 0
MO #236 (E1ux #22) energy= 10.0430890208055   | 10.0430890208055   | 10.0430890208055   occ= 0
MO #237 (A1g #30) energy= 10.1230142584758   | 10.1230142584757   | 10.1230142584757   occ= 0
MO #238 (A1u #30) energy= 10.166797598904    | 10.166797598903    | 10.166797598903    occ= 0
MO #239 (E1gx #22) energy= 10.7254546031705   | 10.7254546031705   | 10.7254546031705   occ= 0
MO #240 (E1gy #22) energy= 10.7254546031706   | 10.7254546031706   | 10.7254546031706   occ= 0
MO #241 (E1uy #23) energy= 11.8473000609665   | 11.8473000609665   | 11.8473000609665   occ= 0
MO #242 (E1ux #23) energy= 11.8473000609665   | 11.8473000609665   | 11.8473000609665   occ= 0
MO #243 (A1u #31) energy= 12.0532001448047   | 12.0532001448058   | 12.0532001448058   occ= 0
MO #244 (A1g #31) energy= 12.072116931376    | 12.072116931376    | 12.072116931376    occ= 0
MO #245 (E1gx #23) energy= 12.8597512746241   | 12.8597512746239   | 12.8597512746239   occ= 0
MO #246 (E1gy #23) energy= 12.8597512746242   | 12.8597512746242   | 12.8597512746242   occ= 0
MO #247 (A1g #32) energy= 14.0853743106894   | 14.0853743106882   | 14.0853743106882   occ= 0
MO #248 (A1u #32) energy= 14.5247246481343   | 14.5247246481349   | 14.5247246481349   occ= 0
MO #249 (A1g #33) energy= 20.1532002089966   | 20.1532002089966   | 20.1532002089966   occ= 0
MO #250 (A1u #33) energy= 21.2706902866537   | 21.2706902866602   | 21.2706902866602   occ= 0
 ** MO coefficients (expansion on meta-Lowdin AOs) **
               #1(A1g #1) #2(A1u #1) #3(A1g #2) #4(E1uy #1) #5(E1ux #1)
  0 C 2s       0.59201   0.33882   0.12678  -0.00000   0.00000
  0 C 3s       0.00182  -0.00027   0.00506  -0.00000  -0.00000
  0 C 4s      -0.01179  -0.00176   0.00955   0.00000   0.00000
  0 C 5s      -0.03353  -0.01266   0.00065  -0.00000   0.00000
  0 C 6s      -0.03285  -0.01085  -0.01594  -0.00000  -0.00000
  0 C 2px     -0.00000  -0.00000   0.00000  -0.00000   0.70615
  0 C 2py      0.00000  -0.00000   0.00000   0.70615  -0.00000
  0 C 2pz     -0.29842   0.44197   0.55836   0.00000   0.00000
  0 C 3px      0.00000   0.00000  -0.00000   0.00000   0.00422
  0 C 3py     -0.00000   0.00000  -0.00000   0.00422   0.00000
  0 C 3pz     -0.00824   0.01577   0.01041  -0.00000  -0.00000
  0 C 4px      0.00000   0.00000  -0.00000   0.00000  -0.00164
  0 C 4py     -0.00000   0.00000   0.00000  -0.00164   0.00000
  0 C 4pz      0.01140   0.00490  -0.00694   0.00000   0.00000
  0 C 5px      0.00000  -0.00000   0.00000   0.00000  -0.00816
  0 C 5py     -0.00000  -0.00000   0.00000  -0.00816   0.00000
  0 C 5pz      0.01854  -0.03340  -0.02801   0.00000   0.00000
  0 C 6px      0.00000  -0.00000   0.00000   0.00000  -0.00302
  0 C 6py     -0.00000  -0.00000  -0.00000  -0.00302   0.00000
  0 C 6pz      0.00870  -0.04242  -0.00890   0.00000   0.00000
  0 C 3dxy     0.00000  -0.00000  -0.00000   0.00000   0.00000
  0 C 3dyz     0.00000  -0.00000  -0.00000  -0.01359   0.00000
  0 C 3dz^2    0.01701   0.00878   0.00319  -0.00000  -0.00000
  0 C 3dxz     0.00000   0.00000  -0.00000  -0.00000  -0.01359
 0 C 3dx2-y2  -0.00000   0.00000   0.00000   0.00000  -0.00000
  0 C 4dxy    -0.00000   0.00000  -0.00000   0.00000   0.00000
  0 C 4dyz     0.00000  -0.00000  -0.00000  -0.02295  -0.00000
  0 C 4dz^2    0.03707   0.02413   0.00842  -0.00000   0.00000
  0 C 4dxz    -0.00000  -0.00000   0.00000   0.00000  -0.02295
 0 C 4dx2-y2   0.00000  -0.00000  -0.00000   0.00000  -0.00000
  0 C 5dxy    -0.00000   0.00000  -0.00000   0.00000   0.00000
  0 C 5dyz    -0.00000   0.00000   0.00000  -0.00886   0.00000
  0 C 5dz^2    0.03707   0.01871  -0.00530  -0.00000   0.00000
  0 C 5dxz     0.00000   0.00000  -0.00000  -0.00000  -0.00886
 0 C 5dx2-y2  -0.00000  -0.00000  -0.00000   0.00000   0.00000
  0 C 6dxy    -0.00000  -0.00000   0.00000   0.00000   0.00000
  0 C 6dyz     0.00000   0.00000  -0.00000   0.00216  -0.00000
  0 C 6dz^2    0.01069   0.00817  -0.02255  -0.00000   0.00000
  0 C 6dxz     0.00000   0.00000  -0.00000  -0.00000   0.00216
 0 C 6dx2-y2   0.00000   0.00000   0.00000  -0.00000  -0.00000
  0 C 4fy^3    0.00000   0.00000  -0.00000  -0.00000   0.00000
  0 C 4fxyz   -0.00000  -0.00000   0.00000   0.00000   0.00000
  0 C 4fyz^2   0.00000  -0.00000  -0.00000   0.01019  -0.00000
  0 C 4fz^3   -0.01587   0.01823   0.03168   0.00000   0.00000
  0 C 4fxz^2  -0.00000  -0.00000   0.00000  -0.00000   0.01019
  0 C 4fzx^2   0.00000   0.00000  -0.00000  -0.00000  -0.00000
  0 C 4fx^3    0.00000   0.00000  -0.00000  -0.00000  -0.00000
  0 C 5fy^3    0.00000   0.00000  -0.00000  -0.00000   0.00000
  0 C 5fxyz   -0.00000  -0.00000   0.00000   0.00000   0.00000
  0 C 5fyz^2  -0.00000   0.00000  -0.00000   0.00968   0.00000
  0 C 5fz^3   -0.00733   0.00883   0.01607  -0.00000  -0.00000
  0 C 5fxz^2   0.00000   0.00000  -0.00000   0.00000   0.00968
  0 C 5fzx^2   0.00000   0.00000  -0.00000  -0.00000  -0.00000
  0 C 5fx^3    0.00000   0.00000  -0.00000  -0.00000  -0.00000
  0 C 6fy^3   -0.00000  -0.00000   0.00000   0.00000  -0.00000
  0 C 6fxyz    0.00000   0.00000  -0.00000   0.00000  -0.00000
  0 C 6fyz^2  -0.00000   0.00000   0.00000   0.01079   0.00000
  0 C 6fz^3   -0.01255   0.01619   0.02900   0.00000   0.00000
  0 C 6fxz^2   0.00000   0.00000  -0.00000   0.00000   0.01079
  0 C 6fzx^2  -0.00000  -0.00000   0.00000   0.00000   0.00000
  0 C 6fx^3   -0.00000  -0.00000   0.00000   0.00000   0.00000
  0 C 5g-4    -0.00000   0.00000   0.00000   0.00000  -0.00000
  0 C 5g-3    -0.00000   0.00000   0.00000  -0.00000  -0.00000
  0 C 5g-2    -0.00000   0.00000   0.00000   0.00000  -0.00000
  0 C 5g-1     0.00000  -0.00000  -0.00000  -0.00123   0.00000
  0 C 5g 0     0.00367   0.00649   0.00183   0.00000   0.00000
  0 C 5g 1     0.00000  -0.00000  -0.00000   0.00000  -0.00123
  0 C 5g 2     0.00000   0.00000  -0.00000   0.00000  -0.00000
  0 C 5g 3     0.00000  -0.00000  -0.00000   0.00000  -0.00000
  0 C 5g 4    -0.00000  -0.00000   0.00000   0.00000  -0.00000
  0 C 6g-4     0.00000  -0.00000   0.00000  -0.00000   0.00000
  0 C 6g-3     0.00000  -0.00000  -0.00000   0.00000  -0.00000
  0 C 6g-2    -0.00000   0.00000   0.00000  -0.00000  -0.00000
  0 C 6g-1    -0.00000   0.00000   0.00000   0.00490   0.00000
  0 C 6g 0     0.00515  -0.00136   0.00997   0.00000   0.00000
  0 C 6g 1     0.00000   0.00000  -0.00000   0.00000   0.00490
  0 C 6g 2     0.00000  -0.00000  -0.00000   0.00000   0.00000
  0 C 6g 3    -0.00000   0.00000   0.00000  -0.00000  -0.00000
  0 C 6g 4     0.00000   0.00000  -0.00000   0.00000  -0.00000
  1 C 2s       0.59201  -0.33882   0.12678   0.00000  -0.00000
  1 C 3s       0.00182   0.00027   0.00506   0.00000  -0.00000
  1 C 4s      -0.01179   0.00176   0.00955  -0.00000   0.00000
  1 C 5s      -0.03353   0.01266   0.00065   0.00000   0.00000
  1 C 6s      -0.03285   0.01085  -0.01594   0.00000   0.00000
  1 C 2px      0.00000   0.00000   0.00000  -0.00000   0.70615
  1 C 2py     -0.00000   0.00000  -0.00000   0.70615  -0.00000
  1 C 2pz      0.29842   0.44197  -0.55836   0.00000  -0.00000
  1 C 3px      0.00000  -0.00000  -0.00000   0.00000   0.00422
  1 C 3py      0.00000  -0.00000   0.00000   0.00422   0.00000
  1 C 3pz      0.00824   0.01577  -0.01041   0.00000   0.00000
  1 C 4px      0.00000  -0.00000  -0.00000   0.00000  -0.00164
  1 C 4py      0.00000  -0.00000   0.00000  -0.00164   0.00000
  1 C 4pz     -0.01140   0.00490   0.00694   0.00000   0.00000
  1 C 5px      0.00000   0.00000  -0.00000   0.00000  -0.00816
  1 C 5py      0.00000   0.00000  -0.00000  -0.00816   0.00000
  1 C 5pz     -0.01854  -0.03340   0.02801   0.00000   0.00000
  1 C 6px      0.00000   0.00000  -0.00000   0.00000  -0.00302
  1 C 6py      0.00000   0.00000   0.00000  -0.00302   0.00000
  1 C 6pz     -0.00870  -0.04242   0.00890   0.00000   0.00000
  1 C 3dxy    -0.00000   0.00000  -0.00000  -0.00000  -0.00000
  1 C 3dyz    -0.00000   0.00000  -0.00000   0.01359   0.00000
  1 C 3dz^2    0.01701  -0.00878   0.00319   0.00000  -0.00000
  1 C 3dxz     0.00000   0.00000  -0.00000   0.00000   0.01359
 1 C 3dx2-y2   0.00000  -0.00000  -0.00000  -0.00000   0.00000
  1 C 4dxy     0.00000  -0.00000  -0.00000  -0.00000  -0.00000
  1 C 4dyz     0.00000  -0.00000   0.00000   0.02295  -0.00000
  1 C 4dz^2    0.03707  -0.02413   0.00842  -0.00000  -0.00000
  1 C 4dxz    -0.00000  -0.00000   0.00000   0.00000   0.02295
 1 C 4dx2-y2  -0.00000   0.00000   0.00000  -0.00000   0.00000
  1 C 5dxy     0.00000  -0.00000   0.00000  -0.00000  -0.00000
  1 C 5dyz     0.00000   0.00000  -0.00000   0.00886   0.00000
  1 C 5dz^2    0.03707  -0.01871  -0.00530  -0.00000   0.00000
  1 C 5dxz     0.00000   0.00000   0.00000  -0.00000   0.00886
 1 C 5dx2-y2   0.00000   0.00000   0.00000  -0.00000  -0.00000
  1 C 6dxy     0.00000   0.00000  -0.00000  -0.00000  -0.00000
  1 C 6dyz     0.00000   0.00000  -0.00000  -0.00216   0.00000
  1 C 6dz^2    0.01069  -0.00817  -0.02255  -0.00000   0.00000
  1 C 6dxz     0.00000   0.00000  -0.00000   0.00000  -0.00216
 1 C 6dx2-y2  -0.00000  -0.00000   0.00000   0.00000   0.00000
  1 C 4fy^3   -0.00000   0.00000  -0.00000   0.00000  -0.00000
  1 C 4fxyz   -0.00000   0.00000   0.00000   0.00000   0.00000
  1 C 4fyz^2   0.00000   0.00000  -0.00000   0.01019  -0.00000
  1 C 4fz^3    0.01587   0.01823  -0.03168  -0.00000  -0.00000
  1 C 4fxz^2   0.00000   0.00000  -0.00000  -0.00000   0.01019
  1 C 4fzx^2   0.00000   0.00000  -0.00000  -0.00000  -0.00000
  1 C 4fx^3    0.00000   0.00000   0.00000  -0.00000  -0.00000
  1 C 5fy^3    0.00000   0.00000   0.00000   0.00000   0.00000
  1 C 5fxyz    0.00000   0.00000   0.00000   0.00000   0.00000
  1 C 5fyz^2   0.00000  -0.00000  -0.00000   0.00968   0.00000
  1 C 5fz^3    0.00733   0.00883  -0.01607   0.00000  -0.00000
  1 C 5fxz^2  -0.00000  -0.00000  -0.00000   0.00000   0.00968
  1 C 5fzx^2   0.00000  -0.00000  -0.00000   0.00000  -0.00000
  1 C 5fx^3   -0.00000   0.00000   0.00000  -0.00000  -0.00000
  1 C 6fy^3    0.00000  -0.00000  -0.00000  -0.00000   0.00000
  1 C 6fxyz    0.00000  -0.00000  -0.00000   0.00000   0.00000
  1 C 6fyz^2  -0.00000  -0.00000   0.00000   0.01079   0.00000
  1 C 6fz^3    0.01255   0.01619  -0.02900   0.00000   0.00000
  1 C 6fxz^2   0.00000  -0.00000   0.00000   0.00000   0.01079
  1 C 6fzx^2  -0.00000  -0.00000   0.00000   0.00000   0.00000
  1 C 6fx^3   -0.00000  -0.00000  -0.00000   0.00000   0.00000
  1 C 5g-4     0.00000   0.00000  -0.00000   0.00000  -0.00000
  1 C 5g-3     0.00000   0.00000  -0.00000  -0.00000  -0.00000
  1 C 5g-2     0.00000   0.00000  -0.00000   0.00000   0.00000
  1 C 5g-1     0.00000  -0.00000  -0.00000   0.00123  -0.00000
  1 C 5g 0     0.00367  -0.00649   0.00183  -0.00000  -0.00000
  1 C 5g 1    -0.00000   0.00000   0.00000  -0.00000   0.00123
  1 C 5g 2    -0.00000   0.00000   0.00000  -0.00000   0.00000
  1 C 5g 3     0.00000  -0.00000  -0.00000   0.00000  -0.00000
  1 C 5g 4    -0.00000   0.00000   0.00000   0.00000   0.00000
  1 C 6g-4    -0.00000  -0.00000   0.00000  -0.00000   0.00000
  1 C 6g-3     0.00000  -0.00000  -0.00000   0.00000  -0.00000
  1 C 6g-2     0.00000  -0.00000   0.00000   0.00000  -0.00000
  1 C 6g-1     0.00000   0.00000  -0.00000  -0.00490  -0.00000
  1 C 6g 0     0.00515   0.00136   0.00997  -0.00000  -0.00000
  1 C 6g 1    -0.00000   0.00000   0.00000  -0.00000  -0.00490
  1 C 6g 2     0.00000   0.00000  -0.00000  -0.00000  -0.00000
  1 C 6g 3     0.00000   0.00000  -0.00000  -0.00000   0.00000
  1 C 6g 4     0.00000  -0.00000  -0.00000  -0.00000  -0.00000
  2 H 1s       0.22664   0.42512   0.40642  -0.00000  -0.00000
  2 H 2s      -0.03661  -0.03968  -0.03387  -0.00000  -0.00000
  2 H 3s      -0.00715  -0.03931  -0.02238  -0.00000  -0.00000
  2 H 4s       0.00646   0.00435  -0.00703   0.00000  -0.00000
  2 H 5s      -0.00803  -0.00513   0.01083  -0.00000  -0.00000
  2 H 2px      0.00000   0.00000   0.00000   0.00000  -0.00269
  2 H 2py      0.00000  -0.00000  -0.00000  -0.00269   0.00000
  2 H 2pz     -0.00698  -0.02298  -0.01923   0.00000   0.00000
  2 H 3px      0.00000  -0.00000   0.00000   0.00000  -0.00508
  2 H 3py      0.00000  -0.00000   0.00000  -0.00508   0.00000
  2 H 3pz      0.02752   0.00098  -0.01637   0.00000   0.00000
  2 H 4px      0.00000   0.00000  -0.00000  -0.00000  -0.00280
  2 H 4py      0.00000   0.00000  -0.00000  -0.00280   0.00000
  2 H 4pz      0.01047  -0.00646  -0.00963  -0.00000  -0.00000
  2 H 5px      0.00000   0.00000  -0.00000   0.00000   0.00046
  2 H 5py      0.00000   0.00000  -0.00000   0.00046   0.00000
  2 H 5pz     -0.00413   0.00475   0.00174  -0.00000   0.00000
  2 H 3dxy     0.00000  -0.00000  -0.00000   0.00000   0.00000
  2 H 3dyz    -0.00000  -0.00000   0.00000   0.00784  -0.00000
  2 H 3dz^2    0.00121   0.00798   0.00805   0.00000  -0.00000
  2 H 3dxz    -0.00000  -0.00000  -0.00000  -0.00000   0.00784
 2 H 3dx2-y2  -0.00000   0.00000   0.00000  -0.00000  -0.00000
  2 H 4dxy     0.00000  -0.00000  -0.00000   0.00000   0.00000
  2 H 4dyz    -0.00000  -0.00000   0.00000   0.00365  -0.00000
  2 H 4dz^2   -0.00401   0.00434   0.00989  -0.00000   0.00000
  2 H 4dxz    -0.00000  -0.00000   0.00000  -0.00000   0.00365
 2 H 4dx2-y2  -0.00000  -0.00000   0.00000   0.00000  -0.00000
  2 H 5dxy     0.00000  -0.00000  -0.00000   0.00000  -0.00000
  2 H 5dyz    -0.00000  -0.00000   0.00000  -0.00131  -0.00000
  2 H 5dz^2    0.00103   0.00514   0.00708   0.00000   0.00000
  2 H 5dxz    -0.00000  -0.00000   0.00000  -0.00000  -0.00131
 2 H 5dx2-y2  -0.00000  -0.00000  -0.00000   0.00000  -0.00000
  2 H 4fy^3   -0.00000   0.00000   0.00000  -0.00000  -0.00000
  2 H 4fxyz   -0.00000   0.00000   0.00000  -0.00000  -0.00000
  2 H 4fyz^2   0.00000   0.00000  -0.00000  -0.00167   0.00000
  2 H 4fz^3   -0.00063  -0.00081  -0.00193  -0.00000  -0.00000
  2 H 4fxz^2   0.00000   0.00000   0.00000   0.00000  -0.00167
  2 H 4fzx^2   0.00000   0.00000  -0.00000  -0.00000   0.00000
  2 H 4fx^3    0.00000  -0.00000  -0.00000   0.00000  -0.00000
  2 H 5fy^3    0.00000  -0.00000  -0.00000   0.00000   0.00000
  2 H 5fxyz    0.00000  -0.00000  -0.00000   0.00000   0.00000
  2 H 5fyz^2  -0.00000  -0.00000   0.00000  -0.00205  -0.00000
  2 H 5fz^3    0.00605   0.00140   0.00014   0.00000   0.00000
  2 H 5fxz^2  -0.00000  -0.00000   0.00000  -0.00000  -0.00205
  2 H 5fzx^2  -0.00000   0.00000   0.00000   0.00000  -0.00000
  2 H 5fx^3   -0.00000   0.00000   0.00000  -0.00000  -0.00000
  3 H 1s       0.22664  -0.42512   0.40642   0.00000   0.00000
  3 H 2s      -0.03661   0.03968  -0.03387   0.00000   0.00000
  3 H 3s      -0.00715   0.03931  -0.02238   0.00000   0.00000
  3 H 4s       0.00646  -0.00435  -0.00703   0.00000   0.00000
  3 H 5s      -0.00803   0.00513   0.01083   0.00000   0.00000
  3 H 2px      0.00000  -0.00000  -0.00000   0.00000  -0.00269
  3 H 2py      0.00000   0.00000  -0.00000  -0.00269   0.00000
  3 H 2pz      0.00698  -0.02298   0.01923   0.00000   0.00000
  3 H 3px      0.00000  -0.00000  -0.00000   0.00000  -0.00508
  3 H 3py      0.00000   0.00000  -0.00000  -0.00508   0.00000
  3 H 3pz     -0.02752   0.00098   0.01637   0.00000   0.00000
  3 H 4px     -0.00000  -0.00000   0.00000   0.00000  -0.00280
  3 H 4py      0.00000  -0.00000  -0.00000  -0.00280  -0.00000
  3 H 4pz     -0.01047  -0.00646   0.00963  -0.00000  -0.00000
  3 H 5px      0.00000  -0.00000   0.00000   0.00000   0.00046
  3 H 5py      0.00000  -0.00000  -0.00000   0.00046   0.00000
  3 H 5pz      0.00413   0.00475  -0.00174  -0.00000  -0.00000
  3 H 3dxy    -0.00000   0.00000   0.00000  -0.00000   0.00000
  3 H 3dyz     0.00000   0.00000  -0.00000  -0.00784   0.00000
  3 H 3dz^2    0.00121  -0.00798   0.00805   0.00000   0.00000
  3 H 3dxz    -0.00000  -0.00000  -0.00000   0.00000  -0.00784
 3 H 3dx2-y2  -0.00000  -0.00000  -0.00000   0.00000   0.00000
  3 H 4dxy    -0.00000   0.00000   0.00000  -0.00000   0.00000
[...]
  0 C 6fz^3   -0.00000   0.00215  -0.06060   0.04943  -0.09085
  0 C 6fxz^2  -0.00000   0.00000   0.00000   0.00000  -0.00000
  0 C 6fzx^2  -0.00000  -0.00000  -0.00000  -0.00000  -0.00000
  0 C 6fx^3   -0.00000  -0.00000  -0.00000  -0.00000   0.00000
  0 C 5g-4    -0.00000  -0.00000  -0.00000  -0.00000   0.00000
  0 C 5g-3     0.00000  -0.00000  -0.00000  -0.00000   0.00000
  0 C 5g-2    -0.00000  -0.00000   0.00000   0.00000   0.00000
  0 C 5g-1     0.25381   0.00000   0.00000   0.00000   0.00000
  0 C 5g 0     0.00000   0.07537  -0.03406   0.01319   0.08273
  0 C 5g 1     0.00000   0.00000   0.00000  -0.00000   0.00000
  0 C 5g 2     0.00000   0.00000   0.00000   0.00000   0.00000
  0 C 5g 3     0.00000   0.00000  -0.00000   0.00000  -0.00000
  0 C 5g 4     0.00000  -0.00000   0.00000  -0.00000   0.00000
  0 C 6g-4    -0.00000   0.00000   0.00000  -0.00000  -0.00000
  0 C 6g-3    -0.00000   0.00000   0.00000  -0.00000  -0.00000
  0 C 6g-2    -0.00000   0.00000  -0.00000   0.00000  -0.00000
  0 C 6g-1    -0.00747  -0.00000  -0.00000  -0.00000   0.00000
  0 C 6g 0    -0.00000  -0.03054  -0.00447  -0.03600   0.08194
  0 C 6g 1    -0.00000   0.00000   0.00000  -0.00000   0.00000
  0 C 6g 2     0.00000   0.00000   0.00000   0.00000  -0.00000
  0 C 6g 3    -0.00000  -0.00000   0.00000  -0.00000   0.00000
  0 C 6g 4    -0.00000   0.00000   0.00000   0.00000   0.00000
  1 C 2s       0.00000  -0.00200   0.00093   0.00389  -0.06735
  1 C 3s       0.00000  -0.25919  -0.02924  -0.19755   0.22510
  1 C 4s      -0.00000   0.08107  -0.04859  -0.29454   0.09049
  1 C 5s       0.00000   0.15893  -0.02353  -0.25073   0.00562
  1 C 6s       0.00000   0.03147  -0.00844  -0.04888  -0.00500
  1 C 2px      0.00000   0.00000  -0.00000  -0.00000  -0.00000
  1 C 2py     -0.00039   0.00000   0.00000  -0.00000   0.00000
  1 C 2pz      0.00000   0.00251  -0.00572  -0.03604  -0.06377
  1 C 3px     -0.00000   0.00000   0.00000  -0.00000   0.00000
  1 C 3py      0.19946  -0.00000  -0.00000  -0.00000   0.00000
  1 C 3pz     -0.00000  -0.37572   0.57961   0.01254  -0.03757
  1 C 4px      0.00000  -0.00000   0.00000  -0.00000  -0.00000
  1 C 4py      0.07570  -0.00000  -0.00000   0.00000   0.00000
  1 C 4pz     -0.00000  -0.00575   0.00086  -0.22848  -0.14727
  1 C 5px     -0.00000   0.00000   0.00000   0.00000   0.00000
  1 C 5py      0.00892  -0.00000   0.00000  -0.00000   0.00000
  1 C 5pz      0.00000  -0.01224   0.04956  -0.17554  -0.05535
  1 C 6px     -0.00000   0.00000  -0.00000   0.00000   0.00000
  1 C 6py     -0.00167  -0.00000  -0.00000  -0.00000   0.00000
  1 C 6pz      0.00000  -0.02909   0.02263  -0.03276   0.02050
  1 C 3dxy    -0.00000  -0.00000  -0.00000  -0.00000   0.00000
  1 C 3dyz    -0.07408  -0.00000  -0.00000  -0.00000   0.00000
  1 C 3dz^2    0.00000  -0.13447  -0.02788   0.02867  -0.02178
  1 C 3dxz     0.00000  -0.00000  -0.00000   0.00000  -0.00000
 1 C 3dx2-y2   0.00000  -0.00000  -0.00000   0.00000  -0.00000
  1 C 4dxy     0.00000   0.00000   0.00000   0.00000  -0.00000
  1 C 4dyz     0.46514  -0.00000   0.00000   0.00000   0.00000
  1 C 4dz^2   -0.00000   0.29795  -0.00785   0.07662  -0.38054
  1 C 4dxz    -0.00000   0.00000   0.00000  -0.00000   0.00000
 1 C 4dx2-y2  -0.00000  -0.00000   0.00000  -0.00000   0.00000
  1 C 5dxy     0.00000  -0.00000   0.00000  -0.00000  -0.00000
  1 C 5dyz    -0.02419  -0.00000   0.00000   0.00000   0.00000
  1 C 5dz^2   -0.00000   0.15420  -0.01743  -0.11052  -0.29272
  1 C 5dxz    -0.00000   0.00000   0.00000  -0.00000   0.00000
 1 C 5dx2-y2  -0.00000   0.00000   0.00000   0.00000   0.00000
  1 C 6dxy     0.00000   0.00000   0.00000   0.00000   0.00000
  1 C 6dyz    -0.00258  -0.00000  -0.00000  -0.00000   0.00000
  1 C 6dz^2    0.00000   0.01855   0.02249  -0.07505  -0.09563
  1 C 6dxz    -0.00000   0.00000   0.00000   0.00000   0.00000
 1 C 6dx2-y2  -0.00000  -0.00000  -0.00000  -0.00000  -0.00000
  1 C 4fy^3   -0.00000   0.00000   0.00000  -0.00000  -0.00000
  1 C 4fxyz   -0.00000  -0.00000   0.00000  -0.00000  -0.00000
  1 C 4fyz^2  -0.01700   0.00000   0.00000   0.00000   0.00000
  1 C 4fz^3    0.00000   0.05228  -0.03377  -0.10652  -0.09391
  1 C 4fxz^2   0.00000  -0.00000   0.00000   0.00000  -0.00000
  1 C 4fzx^2   0.00000   0.00000   0.00000   0.00000   0.00000
  1 C 4fx^3   -0.00000  -0.00000   0.00000  -0.00000   0.00000
  1 C 5fy^3    0.00000   0.00000   0.00000   0.00000  -0.00000
  1 C 5fxyz   -0.00000  -0.00000  -0.00000  -0.00000  -0.00000
  1 C 5fyz^2   0.10617   0.00000   0.00000   0.00000   0.00000
  1 C 5fz^3    0.00000  -0.06452   0.19132  -0.01777  -0.04092
  1 C 5fxz^2   0.00000   0.00000   0.00000  -0.00000   0.00000
  1 C 5fzx^2  -0.00000   0.00000   0.00000   0.00000   0.00000
  1 C 5fx^3   -0.00000  -0.00000   0.00000   0.00000   0.00000
  1 C 6fy^3   -0.00000  -0.00000  -0.00000   0.00000   0.00000
  1 C 6fxyz    0.00000   0.00000   0.00000   0.00000   0.00000
  1 C 6fyz^2  -0.00983  -0.00000  -0.00000  -0.00000   0.00000
  1 C 6fz^3   -0.00000  -0.00215  -0.06060  -0.04943  -0.09085
  1 C 6fxz^2  -0.00000  -0.00000  -0.00000  -0.00000  -0.00000
  1 C 6fzx^2  -0.00000  -0.00000  -0.00000  -0.00000  -0.00000
  1 C 6fx^3    0.00000   0.00000  -0.00000   0.00000  -0.00000
  1 C 5g-4     0.00000   0.00000   0.00000  -0.00000   0.00000
  1 C 5g-3     0.00000   0.00000  -0.00000   0.00000   0.00000
  1 C 5g-2     0.00000   0.00000   0.00000   0.00000   0.00000
  1 C 5g-1     0.25381   0.00000   0.00000   0.00000   0.00000
  1 C 5g 0     0.00000   0.07537   0.03406   0.01319  -0.08273
  1 C 5g 1    -0.00000   0.00000   0.00000  -0.00000   0.00000
  1 C 5g 2    -0.00000  -0.00000  -0.00000  -0.00000  -0.00000
  1 C 5g 3    -0.00000  -0.00000  -0.00000   0.00000  -0.00000
  1 C 5g 4     0.00000   0.00000   0.00000  -0.00000   0.00000
  1 C 6g-4     0.00000   0.00000  -0.00000   0.00000   0.00000
  1 C 6g-3    -0.00000  -0.00000   0.00000  -0.00000  -0.00000
  1 C 6g-2     0.00000  -0.00000  -0.00000  -0.00000  -0.00000
  1 C 6g-1    -0.00747   0.00000   0.00000   0.00000   0.00000
  1 C 6g 0     0.00000  -0.03054   0.00447  -0.03600  -0.08194
  1 C 6g 1    -0.00000   0.00000   0.00000  -0.00000   0.00000
  1 C 6g 2    -0.00000   0.00000  -0.00000   0.00000   0.00000
  1 C 6g 3    -0.00000   0.00000   0.00000  -0.00000   0.00000
  1 C 6g 4     0.00000   0.00000  -0.00000   0.00000  -0.00000
  2 H 1s      -0.00000   0.00382   0.00585  -0.03175  -0.00663
  2 H 2s      -0.00000   0.03494   0.02593  -0.05496   0.00589
  2 H 3s       0.00000   0.04148   0.03038  -0.07834  -0.09500
  2 H 4s       0.00000  -0.08758  -0.13787  -0.06030  -0.04476
  2 H 5s      -0.00000  -0.04188  -0.05256  -0.00428   0.06793
  2 H 2px      0.00000  -0.00000  -0.00000   0.00000  -0.00000
  2 H 2py     -0.15649   0.00000  -0.00000   0.00000  -0.00000
  2 H 2pz     -0.00000   0.07706   0.09358   0.36782   0.28461
  2 H 3px      0.00000  -0.00000  -0.00000   0.00000  -0.00000
  2 H 3py      0.07605   0.00000  -0.00000   0.00000  -0.00000
  2 H 3pz     -0.00000  -0.10382  -0.08476   0.05675  -0.03013
  2 H 4px      0.00000  -0.00000   0.00000   0.00000  -0.00000
  2 H 4py     -0.01299   0.00000   0.00000  -0.00000  -0.00000
  2 H 4pz      0.00000   0.11408   0.01951  -0.04520  -0.08617
  2 H 5px      0.00000   0.00000   0.00000   0.00000  -0.00000
  2 H 5py      0.10324   0.00000   0.00000  -0.00000  -0.00000
  2 H 5pz     -0.00000   0.06066  -0.10734  -0.01374   0.05467
  2 H 3dxy    -0.00000   0.00000   0.00000  -0.00000   0.00000
  2 H 3dyz     0.17875  -0.00000   0.00000  -0.00000  -0.00000
  2 H 3dz^2   -0.00000  -0.02648  -0.10434  -0.14966  -0.13900
  2 H 3dxz    -0.00000   0.00000   0.00000  -0.00000   0.00000
 2 H 3dx2-y2  -0.00000  -0.00000  -0.00000  -0.00000  -0.00000
  2 H 4dxy    -0.00000   0.00000   0.00000  -0.00000   0.00000
  2 H 4dyz    -0.21211  -0.00000   0.00000  -0.00000  -0.00000
  2 H 4dz^2    0.00000   0.18295   0.17231  -0.03345  -0.03135
  2 H 4dxz    -0.00000   0.00000   0.00000  -0.00000   0.00000
 2 H 4dx2-y2  -0.00000  -0.00000   0.00000  -0.00000  -0.00000
  2 H 5dxy    -0.00000   0.00000   0.00000  -0.00000   0.00000
  2 H 5dyz     0.17602  -0.00000   0.00000   0.00000   0.00000
  2 H 5dz^2    0.00000  -0.18045  -0.13099  -0.01691  -0.01472
  2 H 5dxz    -0.00000   0.00000   0.00000  -0.00000   0.00000
 2 H 5dx2-y2  -0.00000   0.00000   0.00000   0.00000  -0.00000
  2 H 4fy^3    0.00000  -0.00000  -0.00000  -0.00000   0.00000
  2 H 4fxyz    0.00000  -0.00000  -0.00000   0.00000  -0.00000
  2 H 4fyz^2  -0.06285   0.00000  -0.00000   0.00000   0.00000
  2 H 4fz^3    0.00000  -0.02771   0.03794   0.05407   0.03463
  2 H 4fxz^2   0.00000  -0.00000  -0.00000   0.00000  -0.00000
  2 H 4fzx^2   0.00000   0.00000  -0.00000   0.00000   0.00000
  2 H 4fx^3    0.00000  -0.00000  -0.00000   0.00000  -0.00000
  2 H 5fy^3    0.00000   0.00000   0.00000   0.00000  -0.00000
  2 H 5fxyz   -0.00000   0.00000   0.00000  -0.00000   0.00000
  2 H 5fyz^2  -0.05350   0.00000   0.00000  -0.00000  -0.00000
  2 H 5fz^3   -0.00000  -0.00251   0.05045  -0.04470  -0.06096
  2 H 5fxz^2  -0.00000   0.00000  -0.00000  -0.00000   0.00000
  2 H 5fzx^2  -0.00000  -0.00000  -0.00000  -0.00000  -0.00000
  2 H 5fx^3   -0.00000   0.00000   0.00000  -0.00000   0.00000
  3 H 1s       0.00000   0.00382  -0.00585  -0.03175   0.00663
  3 H 2s       0.00000   0.03494  -0.02593  -0.05496  -0.00589
  3 H 3s       0.00000   0.04148  -0.03038  -0.07834   0.09500
  3 H 4s      -0.00000  -0.08758   0.13787  -0.06030   0.04476
  3 H 5s       0.00000  -0.04188   0.05256  -0.00428  -0.06793
  3 H 2px     -0.00000   0.00000   0.00000  -0.00000   0.00000
  3 H 2py      0.15649  -0.00000   0.00000  -0.00000   0.00000
  3 H 2pz     -0.00000  -0.07706   0.09358  -0.36782   0.28461
  3 H 3px     -0.00000   0.00000   0.00000  -0.00000   0.00000
  3 H 3py     -0.07605  -0.00000   0.00000  -0.00000   0.00000
  3 H 3pz      0.00000   0.10382  -0.08476  -0.05675  -0.03013
  3 H 4px     -0.00000   0.00000   0.00000  -0.00000  -0.00000
  3 H 4py      0.01299   0.00000   0.00000   0.00000  -0.00000
  3 H 4pz      0.00000  -0.11408   0.01951   0.04520  -0.08617
  3 H 5px     -0.00000  -0.00000   0.00000  -0.00000  -0.00000
  3 H 5py     -0.10324   0.00000   0.00000   0.00000   0.00000
  3 H 5pz     -0.00000  -0.06066  -0.10734   0.01374   0.05467
  3 H 3dxy    -0.00000  -0.00000   0.00000  -0.00000   0.00000
  3 H 3dyz     0.17875   0.00000   0.00000   0.00000  -0.00000
  3 H 3dz^2   -0.00000  -0.02648   0.10434  -0.14966   0.13900
  3 H 3dxz    -0.00000   0.00000   0.00000  -0.00000   0.00000
 3 H 3dx2-y2   0.00000  -0.00000   0.00000  -0.00000  -0.00000
  3 H 4dxy    -0.00000  -0.00000   0.00000  -0.00000  -0.00000
  3 H 4dyz    -0.21211  -0.00000   0.00000  -0.00000  -0.00000
  3 H 4dz^2   -0.00000   0.18295  -0.17231  -0.03345   0.03135
  3 H 4dxz    -0.00000   0.00000   0.00000  -0.00000   0.00000
 3 H 4dx2-y2   0.00000   0.00000   0.00000  -0.00000  -0.00000
  3 H 5dxy    -0.00000  -0.00000  -0.00000  -0.00000  -0.00000
  3 H 5dyz     0.17602  -0.00000   0.00000  -0.00000  -0.00000
  3 H 5dz^2   -0.00000  -0.18045   0.13099  -0.01691   0.01472
  3 H 5dxz    -0.00000   0.00000   0.00000  -0.00000   0.00000
 3 H 5dx2-y2  -0.00000   0.00000  -0.00000   0.00000  -0.00000
  3 H 4fy^3   -0.00000  -0.00000   0.00000  -0.00000  -0.00000
  3 H 4fxyz   -0.00000  -0.00000   0.00000  -0.00000  -0.00000
  3 H 4fyz^2   0.06285   0.00000   0.00000   0.00000  -0.00000
  3 H 4fz^3   -0.00000   0.02771   0.03794  -0.05407   0.03463
  3 H 4fxz^2  -0.00000   0.00000   0.00000   0.00000   0.00000
  3 H 4fzx^2   0.00000  -0.00000  -0.00000  -0.00000   0.00000
  3 H 4fx^3   -0.00000   0.00000   0.00000  -0.00000   0.00000
  3 H 5fy^3   -0.00000   0.00000   0.00000   0.00000   0.00000
  3 H 5fxyz    0.00000   0.00000  -0.00000   0.00000   0.00000
  3 H 5fyz^2   0.05350  -0.00000  -0.00000   0.00000   0.00000
  3 H 5fz^3    0.00000   0.00251   0.05045   0.04470  -0.06096
  3 H 5fxz^2   0.00000  -0.00000  -0.00000  -0.00000  -0.00000
  3 H 5fzx^2  -0.00000  -0.00000   0.00000   0.00000   0.00000
  3 H 5fx^3   -0.00000  -0.00000   0.00000   0.00000  -0.00000
 ** Mulliken pop on meta-lowdin orthogonal AOs  **
 ** Mulliken pop  **
pop of  0 C 2s        0.96269
pop of  0 C 3s        0.00006
pop of  0 C 4s        0.00047
pop of  0 C 5s        0.00257
pop of  0 C 6s        0.00290
pop of  0 C 2px       0.99729
pop of  0 C 2py       0.99729
pop of  0 C 2pz       1.19233
pop of  0 C 3px       0.00004
pop of  0 C 3py       0.00004
pop of  0 C 3pz       0.00085
pop of  0 C 4px       0.00001
pop of  0 C 4py       0.00001
pop of  0 C 4pz       0.00040
pop of  0 C 5px       0.00013
pop of  0 C 5py       0.00013
pop of  0 C 5pz       0.00449
pop of  0 C 6px       0.00002
pop of  0 C 6py       0.00002
pop of  0 C 6pz       0.00391
pop of  0 C 3dxy      0.00000
pop of  0 C 3dyz      0.00037
pop of  0 C 3dz^2     0.00075
pop of  0 C 3dxz      0.00037
pop of  0 C 3dx2-y2    0.00000
pop of  0 C 4dxy      0.00000
pop of  0 C 4dyz      0.00105
pop of  0 C 4dz^2     0.00406
pop of  0 C 4dxz      0.00105
pop of  0 C 4dx2-y2    0.00000
pop of  0 C 5dxy      0.00000
pop of  0 C 5dyz      0.00016
pop of  0 C 5dz^2     0.00350
pop of  0 C 5dxz      0.00016
pop of  0 C 5dx2-y2    0.00000
pop of  0 C 6dxy      0.00000
pop of  0 C 6dyz      0.00001
pop of  0 C 6dz^2     0.00138
pop of  0 C 6dxz      0.00001
pop of  0 C 6dx2-y2    0.00000
pop of  0 C 4fy^3     0.00000
pop of  0 C 4fxyz     0.00000
pop of  0 C 4fyz^2    0.00021
pop of  0 C 4fz^3     0.00318
pop of  0 C 4fxz^2    0.00021
pop of  0 C 4fzx^2    0.00000
pop of  0 C 4fx^3     0.00000
pop of  0 C 5fy^3     0.00000
pop of  0 C 5fxyz     0.00000
pop of  0 C 5fyz^2    0.00019
pop of  0 C 5fz^3     0.00078
pop of  0 C 5fxz^2    0.00019
pop of  0 C 5fzx^2    0.00000
pop of  0 C 5fx^3     0.00000
pop of  0 C 6fy^3     0.00000
pop of  0 C 6fxyz     0.00000
pop of  0 C 6fyz^2    0.00023
pop of  0 C 6fz^3     0.00252
pop of  0 C 6fxz^2    0.00023
pop of  0 C 6fzx^2    0.00000
pop of  0 C 6fx^3     0.00000
pop of  0 C 5g-4      0.00000
pop of  0 C 5g-3      0.00000
pop of  0 C 5g-2      0.00000
pop of  0 C 5g-1      0.00000
pop of  0 C 5g 0      0.00012
pop of  0 C 5g 1      0.00000
pop of  0 C 5g 2      0.00000
pop of  0 C 5g 3      0.00000
pop of  0 C 5g 4      0.00000
pop of  0 C 6g-4      0.00000
pop of  0 C 6g-3      0.00000
pop of  0 C 6g-2      0.00000
pop of  0 C 6g-1      0.00005
pop of  0 C 6g 0      0.00026
pop of  0 C 6g 1      0.00005
pop of  0 C 6g 2      0.00000
pop of  0 C 6g 3      0.00000
pop of  0 C 6g 4      0.00000
pop of  1 C 2s        0.96269
pop of  1 C 3s        0.00006
pop of  1 C 4s        0.00047
pop of  1 C 5s        0.00257
pop of  1 C 6s        0.00290
pop of  1 C 2px       0.99729
pop of  1 C 2py       0.99729
pop of  1 C 2pz       1.19233
pop of  1 C 3px       0.00004
pop of  1 C 3py       0.00004
pop of  1 C 3pz       0.00085
pop of  1 C 4px       0.00001
pop of  1 C 4py       0.00001
pop of  1 C 4pz       0.00040
pop of  1 C 5px       0.00013
pop of  1 C 5py       0.00013
pop of  1 C 5pz       0.00449
pop of  1 C 6px       0.00002
pop of  1 C 6py       0.00002
pop of  1 C 6pz       0.00391
pop of  1 C 3dxy      0.00000
pop of  1 C 3dyz      0.00037
pop of  1 C 3dz^2     0.00075
pop of  1 C 3dxz      0.00037
pop of  1 C 3dx2-y2    0.00000
pop of  1 C 4dxy      0.00000
pop of  1 C 4dyz      0.00105
pop of  1 C 4dz^2     0.00406
pop of  1 C 4dxz      0.00105
pop of  1 C 4dx2-y2    0.00000
pop of  1 C 5dxy      0.00000
pop of  1 C 5dyz      0.00016
pop of  1 C 5dz^2     0.00350
pop of  1 C 5dxz      0.00016
pop of  1 C 5dx2-y2    0.00000
pop of  1 C 6dxy      0.00000
pop of  1 C 6dyz      0.00001
pop of  1 C 6dz^2     0.00138
pop of  1 C 6dxz      0.00001
pop of  1 C 6dx2-y2    0.00000
pop of  1 C 4fy^3     0.00000
pop of  1 C 4fxyz     0.00000
pop of  1 C 4fyz^2    0.00021
pop of  1 C 4fz^3     0.00318
pop of  1 C 4fxz^2    0.00021
pop of  1 C 4fzx^2    0.00000
pop of  1 C 4fx^3     0.00000
pop of  1 C 5fy^3     0.00000
pop of  1 C 5fxyz     0.00000
pop of  1 C 5fyz^2    0.00019
pop of  1 C 5fz^3     0.00078
pop of  1 C 5fxz^2    0.00019
pop of  1 C 5fzx^2    0.00000
pop of  1 C 5fx^3     0.00000
pop of  1 C 6fy^3     0.00000
pop of  1 C 6fxyz     0.00000
pop of  1 C 6fyz^2    0.00023
pop of  1 C 6fz^3     0.00252
pop of  1 C 6fxz^2    0.00023
pop of  1 C 6fzx^2    0.00000
pop of  1 C 6fx^3     0.00000
pop of  1 C 5g-4      0.00000
pop of  1 C 5g-3      0.00000
pop of  1 C 5g-2      0.00000
pop of  1 C 5g-1      0.00000
pop of  1 C 5g 0      0.00012
pop of  1 C 5g 1      0.00000
pop of  1 C 5g 2      0.00000
pop of  1 C 5g 3      0.00000
pop of  1 C 5g 4      0.00000
pop of  1 C 6g-4      0.00000
pop of  1 C 6g-3      0.00000
pop of  1 C 6g-2      0.00000
pop of  1 C 6g-1      0.00005
pop of  1 C 6g 0      0.00026
pop of  1 C 6g 1      0.00005
pop of  1 C 6g 2      0.00000
pop of  1 C 6g 3      0.00000
pop of  1 C 6g 4      0.00000
pop of  2 H 1s        0.79456
pop of  2 H 2s        0.00812
pop of  2 H 3s        0.00419
pop of  2 H 4s        0.00022
pop of  2 H 5s        0.00042
pop of  2 H 2px       0.00001
pop of  2 H 2py       0.00001
pop of  2 H 2pz       0.00189
pop of  2 H 3px       0.00005
pop of  2 H 3py       0.00005
pop of  2 H 3pz       0.00205
pop of  2 H 4px       0.00002
pop of  2 H 4py       0.00002
pop of  2 H 4pz       0.00049
pop of  2 H 5px       0.00000
pop of  2 H 5py       0.00000
pop of  2 H 5pz       0.00009
pop of  2 H 3dxy      0.00000
pop of  2 H 3dyz      0.00012
pop of  2 H 3dz^2     0.00026
pop of  2 H 3dxz      0.00012
pop of  2 H 3dx2-y2    0.00000
pop of  2 H 4dxy      0.00000
pop of  2 H 4dyz      0.00003
pop of  2 H 4dz^2     0.00027
pop of  2 H 4dxz      0.00003
pop of  2 H 4dx2-y2    0.00000
pop of  2 H 5dxy      0.00000
pop of  2 H 5dyz      0.00000
pop of  2 H 5dz^2     0.00016
pop of  2 H 5dxz      0.00000
pop of  2 H 5dx2-y2    0.00000
pop of  2 H 4fy^3     0.00000
pop of  2 H 4fxyz     0.00000
pop of  2 H 4fyz^2    0.00001
pop of  2 H 4fz^3     0.00001
pop of  2 H 4fxz^2    0.00001
pop of  2 H 4fzx^2    0.00000
pop of  2 H 4fx^3     0.00000
pop of  2 H 5fy^3     0.00000
pop of  2 H 5fxyz     0.00000
pop of  2 H 5fyz^2    0.00001
pop of  2 H 5fz^3     0.00008
pop of  2 H 5fxz^2    0.00001
pop of  2 H 5fzx^2    0.00000
pop of  2 H 5fx^3     0.00000
pop of  3 H 1s        0.79456
pop of  3 H 2s        0.00812
pop of  3 H 3s        0.00419
pop of  3 H 4s        0.00022
pop of  3 H 5s        0.00042
pop of  3 H 2px       0.00001
pop of  3 H 2py       0.00001
pop of  3 H 2pz       0.00189
pop of  3 H 3px       0.00005
pop of  3 H 3py       0.00005
pop of  3 H 3pz       0.00205
pop of  3 H 4px       0.00002
pop of  3 H 4py       0.00002
pop of  3 H 4pz       0.00049
pop of  3 H 5px       0.00000
pop of  3 H 5py       0.00000
pop of  3 H 5pz       0.00009
pop of  3 H 3dxy      0.00000
pop of  3 H 3dyz      0.00012
pop of  3 H 3dz^2     0.00026
pop of  3 H 3dxz      0.00012
pop of  3 H 3dx2-y2    0.00000
pop of  3 H 4dxy      0.00000
pop of  3 H 4dyz      0.00003
pop of  3 H 4dz^2     0.00027
pop of  3 H 4dxz      0.00003
pop of  3 H 4dx2-y2    0.00000
pop of  3 H 5dxy      0.00000
pop of  3 H 5dyz      0.00000
pop of  3 H 5dz^2     0.00016
pop of  3 H 5dxz      0.00000
pop of  3 H 5dx2-y2    0.00000
pop of  3 H 4fy^3     0.00000
pop of  3 H 4fxyz     0.00000
pop of  3 H 4fyz^2    0.00001
pop of  3 H 4fz^3     0.00001
pop of  3 H 4fxz^2    0.00001
pop of  3 H 4fzx^2    0.00000
pop of  3 H 4fx^3     0.00000
pop of  3 H 5fy^3     0.00000
pop of  3 H 5fxyz     0.00000
pop of  3 H 5fyz^2    0.00001
pop of  3 H 5fz^3     0.00008
pop of  3 H 5fxz^2    0.00001
pop of  3 H 5fzx^2    0.00000
pop of  3 H 5fx^3     0.00000
 ** Mulliken atomic charges  **
charge of  0C =     -0.18671
charge of  1C =     -0.18671
charge of  2H =      0.18671
charge of  3H =      0.18671
Dipole moment(X, Y, Z, Debye):  0.00000,  0.00000, -0.00000
