  Input file(s): optJ12.in.xml 

=====================================================
                    QMCPACK 3.9.9

       (c) Copyright 2003-  QMCPACK developers

                    Please cite:
 J. Kim et al. J. Phys. Cond. Mat. 30 195901 (2018)
      https://doi.org/10.1088/1361-648X/aab9c3

  Git branch: develop
  Last git commit: 840aa1bcc0af4a7c94bd47fbcddb8f68a41f5fe9
  Last git commit date: Fri Jul 24 15:45:02 2020 -0400
  Last git commit subject: Merge pull request #2601 from jtkrogel/ed_fix
=====================================================
  Global options 

  Total number of MPI ranks = 2
  Number of MPI groups      = 1
  MPI group ID              = 0
  Number of ranks in group  = 2
  MPI ranks per node        = 2
  OMP 1st level threads     = 4
  OMP nested threading disabled or only 1 thread on the 2nd level

  Precision used in this calculation, see definitions in the manual:
  Base precision      = double
  Full precision      = double

  Structure-of-arrays (SoA) optimization enabled

  Input XML = optJ12.in.xml

  Project = optJ12
  date    = 2020-08-05 16:04:00 EDT
  host    = Haihan

 Random Number
 -------------
  Offset for the random number seeds based on time: 176

  Range of prime numbers to use as seeds over processors and threads = 1061-1109


 Lattice
 -------
  Lattice is not specified for the Open BC. Add a huge box.
  Simulation cell radius   = 5000000000.000000 bohr
  Wigner-Seitz cell radius = 5000000000.000000 bohr

 Particle Set 
 ------------
  Name: ion0
  Initializing the lattice by the global supercell
  All the species have the same mass 1.000000
  Particle set size: 3

 Particle Set 
 ------------
  Name: e
  Initializing the lattice by the global supercell
  All the species have the same mass 1.000000
  Particle set size: 4

 Wavefunction setup: 
 ------------------- 
  Name: psi0
  LCAO: SoaAtomicBasisSet<MultiQuintic,1>
Reading BasisSet from HDF5 file:../scf/scf.h5
<input node="atomicBasisSet" name="gaussian" expandYlm="pyscf" angular="spherical" elementType="Be" normalized="no" type="Numerical" expM="0" />
  AO BasisSet for Be
   Spherical Harmonics contain (-1)^m factor
   Angular momentum m expanded as -l, ... ,l, with the exception of L=1 (1,-1,0)
   Grid is created by the input paremters in h5
    Using log grid ri = 0.000001 rf = 100.000000 npts = 1001
   R(n,l,m,s) 0 0 0 0
   R(n,l,m,s) 1 0 0 0
   R(n,l,m,s) 2 0 0 0
   R(n,l,m,s) 3 0 0 0
   R(n,l,m,s) 4 1 0 0
   R(n,l,m,s) 5 1 0 0
   R(n,l,m,s) 6 1 0 0
   R(n,l,m,s) 7 1 0 0
   R(n,l,m,s) 8 2 0 0
   R(n,l,m,s) 9 2 0 0
   R(n,l,m,s) 10 2 0 0
   R(n,l,m,s) 11 3 0 0
   R(n,l,m,s) 12 3 0 0
Expanding Ylm as L=1 as (1,-1,0) and L>1 as -l,-l+1,...,l-1,l
   Adding 1 spherical orbitals
   Adding 1 spherical orbitals
   Adding 1 spherical orbitals
   Adding 1 spherical orbitals
   Adding 3 spherical orbitals
   Adding 3 spherical orbitals
   Adding 3 spherical orbitals
   Adding 3 spherical orbitals
   Adding 5 spherical orbitals
   Adding 5 spherical orbitals
   Adding 5 spherical orbitals
   Adding 7 spherical orbitals
   Adding 7 spherical orbitals
  Setting cutoff radius 226968848850.468567

   Maximum Angular Momentum  = 3
   Number of Radial functors = 13
   Basis size                = 45

<input node="atomicBasisSet" name="gaussian" expandYlm="pyscf" angular="spherical" elementType="H" normalized="no" type="Numerical" expM="0" />
  AO BasisSet for H
   Spherical Harmonics contain (-1)^m factor
   Angular momentum m expanded as -l, ... ,l, with the exception of L=1 (1,-1,0)
   Grid is created by the input paremters in h5
    Using log grid ri = 0.000001 rf = 100.000000 npts = 1001
   R(n,l,m,s) 0 0 0 0
   R(n,l,m,s) 1 0 0 0
   R(n,l,m,s) 2 0 0 0
   R(n,l,m,s) 3 0 0 0
   R(n,l,m,s) 4 1 0 0
   R(n,l,m,s) 5 1 0 0
   R(n,l,m,s) 6 1 0 0
   R(n,l,m,s) 7 2 0 0
   R(n,l,m,s) 8 2 0 0
Expanding Ylm as L=1 as (1,-1,0) and L>1 as -l,-l+1,...,l-1,l
   Adding 1 spherical orbitals
   Adding 1 spherical orbitals
   Adding 1 spherical orbitals
   Adding 1 spherical orbitals
   Adding 3 spherical orbitals
   Adding 3 spherical orbitals
   Adding 3 spherical orbitals
   Adding 5 spherical orbitals
   Adding 5 spherical orbitals
  Setting cutoff radius 128044595.777637

   Maximum Angular Momentum  = 2
   Number of Radial functors = 9
   Basis size                = 23

  Created SPOSet builder named 'LCAOBSet' of type molecularorbital
Reuse SPOSetBuilder "LCAOBSet" type MolecularOrbital
  Building SPOSet '' with '' basis set.
Reuse SPOSetBuilder "LCAOBSet" type MolecularOrbital
  Building SPOSet '' with '' basis set.
  Creating a determinant updet group=0 sposet=updet
  Reusing a SPO set updet
  Setting delay_rank by default!
  Using rank-1 Sherman-Morrison Fahy update (SM1)
  Using DiracDeterminant with DelayedUpdate engine

  Creating a determinant downdet group=1 sposet=downdet
  Reusing a SPO set downdet
  Setting delay_rank by default!
  Using rank-1 Sherman-Morrison Fahy update (SM1)
  Using DiracDeterminant with DelayedUpdate engine

  Added a fermionic WaveFunctionComponent SlaterDet

   Jastrow
   -------
    Name: J1   Type: One-Body   Function: bspline

    Radial function for element: H
     Number of parameters: 10
     Cusp: 0.000000
     Cutoff radius: 5.000000

     Name                        Value Type Recompute Use Index
     ---- ---------------------------- ---- --------- --- -----
     eH_0                 0.000000e+00    1         1  ON     0
     eH_1                 0.000000e+00    1         1  ON     1
     eH_2                 0.000000e+00    1         1  ON     2
     eH_3                 0.000000e+00    1         1  ON     3
     eH_4                 0.000000e+00    1         1  ON     4
     eH_5                 0.000000e+00    1         1  ON     5
     eH_6                 0.000000e+00    1         1  ON     6
     eH_7                 0.000000e+00    1         1  ON     7
     eH_8                 0.000000e+00    1         1  ON     8
     eH_9                 0.000000e+00    1         1  ON     9

    Radial function for element: Be
     Number of parameters: 10
     Cusp: 0
     Cutoff radius: 5

      Name                        Value Type Recompute Use Index
     ----- ---------------------------- ---- --------- --- -----
     eBe_0                 0.000000e+00    1         1  ON     0
     eBe_1                 0.000000e+00    1         1  ON     1
     eBe_2                 0.000000e+00    1         1  ON     2
     eBe_3                 0.000000e+00    1         1  ON     3
     eBe_4                 0.000000e+00    1         1  ON     4
     eBe_5                 0.000000e+00    1         1  ON     5
     eBe_6                 0.000000e+00    1         1  ON     6
     eBe_7                 0.000000e+00    1         1  ON     7
     eBe_8                 0.000000e+00    1         1  ON     8
     eBe_9                 0.000000e+00    1         1  ON     9


   Jastrow
   -------
    Name: J2   Type: Two-Body   Function: bspline

    Radial function for species: u - u
     Number of parameters: 10
     Cusp: -0.25
     Cutoff radius: 5

     Name                        Value Type Recompute Use Index
     ---- ---------------------------- ---- --------- --- -----
     uu_0                 0.000000e+00    1         1  ON     0
     uu_1                 0.000000e+00    1         1  ON     1
     uu_2                 0.000000e+00    1         1  ON     2
     uu_3                 0.000000e+00    1         1  ON     3
     uu_4                 0.000000e+00    1         1  ON     4
     uu_5                 0.000000e+00    1         1  ON     5
     uu_6                 0.000000e+00    1         1  ON     6
     uu_7                 0.000000e+00    1         1  ON     7
     uu_8                 0.000000e+00    1         1  ON     8
     uu_9                 0.000000e+00    1         1  ON     9

    Radial function for species: u - d
     Number of parameters: 10
     Cusp: -0.5
     Cutoff radius: 5

     Name                        Value Type Recompute Use Index
     ---- ---------------------------- ---- --------- --- -----
     ud_0                 0.000000e+00    1         1  ON     0
     ud_1                 0.000000e+00    1         1  ON     1
     ud_2                 0.000000e+00    1         1  ON     2
     ud_3                 0.000000e+00    1         1  ON     3
     ud_4                 0.000000e+00    1         1  ON     4
     ud_5                 0.000000e+00    1         1  ON     5
     ud_6                 0.000000e+00    1         1  ON     6
     ud_7                 0.000000e+00    1         1  ON     7
     ud_8                 0.000000e+00    1         1  ON     8
     ud_9                 0.000000e+00    1         1  ON     9

  QMCHamiltonian::addOperator Kinetic to H, physical Hamiltonian 
  QMCHamiltonian::addOperator ElecElec to H, physical Hamiltonian 
QMCHamiltonian::addOperatorType added type coulomb named ElecElec
  QMCHamiltonian::addOperator IonIon to H, physical Hamiltonian 
QMCHamiltonian::addOperatorType added type coulomb named IonIon

  ECPotential builder for pseudopotential 

  Adding pseudopotential for H
   Linear grid  ri=0 rf=10 npts = 10001
    ECPComponentBuilder::buildSemiLocalAndLocal 
    Assuming Hartree unit
   Number of angular momentum channels 2
   Maximum angular momentum channel 1
   Creating a Linear Grid Rmax=1e-10
  Using global grid with delta = 0.001
   Making L=1 a local potential with a radial cutoff of 9.999
    Non-local pseudopotential parameters
    Maximum angular mementum = 0
    Number of non-local channels = 1
       l(0)=0
    Cutoff radius = 0.001
    Spherical grids and weights: 
                        1                 0                 0       0.08333333333
                       -1   1.224646799e-16                 0       0.08333333333
             0.4472135955       0.894427191                 0       0.08333333333
            -0.4472135955      0.7236067977      0.5257311121       0.08333333333
             0.4472135955      0.2763932023      0.8506508084       0.08333333333
            -0.4472135955     -0.2763932023      0.8506508084       0.08333333333
             0.4472135955     -0.7236067977      0.5257311121       0.08333333333
            -0.4472135955      -0.894427191   1.095357397e-16       0.08333333333
             0.4472135955     -0.7236067977     -0.5257311121       0.08333333333
            -0.4472135955     -0.2763932023     -0.8506508084       0.08333333333
             0.4472135955      0.2763932023     -0.8506508084       0.08333333333
            -0.4472135955      0.7236067977     -0.5257311121       0.08333333333
    Maximum cutoff radius 0.001

  Adding pseudopotential for Be
   Linear grid  ri=0 rf=10 npts = 10001
    ECPComponentBuilder::buildSemiLocalAndLocal 
    Assuming Hartree unit
   Number of angular momentum channels 2
   Maximum angular momentum channel 1
   Creating a Linear Grid Rmax=2.37
  Using global grid with delta = 0.001
   Making L=1 a local potential with a radial cutoff of 9.999
    Non-local pseudopotential parameters
    Maximum angular mementum = 0
    Number of non-local channels = 1
       l(0)=0
    Cutoff radius = 2.37
    Spherical grids and weights: 
                        1                 0                 0       0.08333333333
                       -1   1.224646799e-16                 0       0.08333333333
             0.4472135955       0.894427191                 0       0.08333333333
            -0.4472135955      0.7236067977      0.5257311121       0.08333333333
             0.4472135955      0.2763932023      0.8506508084       0.08333333333
            -0.4472135955     -0.2763932023      0.8506508084       0.08333333333
             0.4472135955     -0.7236067977      0.5257311121       0.08333333333
            -0.4472135955      -0.894427191   1.095357397e-16       0.08333333333
             0.4472135955     -0.7236067977     -0.5257311121       0.08333333333
            -0.4472135955     -0.2763932023     -0.8506508084       0.08333333333
             0.4472135955      0.2763932023     -0.8506508084       0.08333333333
            -0.4472135955      0.7236067977     -0.5257311121       0.08333333333
    Maximum cutoff radius 2.37
  QMCHamiltonian::addOperator LocalECP to H, physical Hamiltonian 

  Using NonLocalECP potential 
    Maximum grid on a sphere for NonLocalECPotential: 12
  QMCHamiltonian::addOperator NonLocalECP to H, physical Hamiltonian 
QMCHamiltonian::addOperatorType added type pseudo named PseudoPot

  QMCHamiltonian::add2WalkerProperty added
    5 to P::PropertyList 
    0 to P::Collectables 
    starting Index of the observables in P::PropertyList = 9
ParticleSetPool::randomize 1 ParticleSet.
<init source="ion0" target="e">
</init>
  Initialization Execution time = 0.864 secs
=========================================================
 Summary of QMC systems 
=========================================================
ParticleSetPool has: 

  ParticleSet 'e' contains 4 particles :  u(2) d(2)

    u  4.1093688488e-01 -8.8836944730e-01  2.1717185362e-01
    u  4.7471127770e-01 -8.3990439102e-01  2.2336905980e+00
    d -1.9142321507e-01  1.0144331166e-01 -9.7892768860e-01
    d -5.6816093068e-01  7.9810602124e-01 -2.2933357601e+00

  Distance table for dissimilar particles (A-B):
    source: ion0  target: e
    Using structure-of-arrays (SoA) data layout
    Distance computations use open boundary conditions in 3D.

  Distance table for similar particles (A-A):
    source/target: e
    Using structure-of-arrays (SoA) data layout
    Distance computations use open boundary conditions in 3D.


  ParticleSet 'ion0' contains 3 particles :  Be(1) H(2)

    Be  0.0000000000e+00  0.0000000000e+00  0.0000000000e+00
    H  0.0000000000e+00  0.0000000000e+00  2.5065327300e+00
    H  0.0000000000e+00  0.0000000000e+00 -2.5065327300e+00

  Distance table for similar particles (A-A):
    source/target: ion0
    Using structure-of-arrays (SoA) data layout
    Distance computations use open boundary conditions in 3D.


  Hamiltonian h0
  Kinetic         Kinetic energy
  ElecElec        CoulombAB source=e

  IonIon          CoulombAA source/target ion0

  LocalECP        LocalECPotential: ion0
  NonLocalECP     NonLocalECPotential: ion0

Loop execution max-interations = 3

=========================================================
  Start QMCFixedSampleLinearOptimize
  File Root optJ12.s000 append = no 
=========================================================
  Skip QMCDriver::putQMCInfo 
  Resetting Properties of the walkers 1 x 14
  Adding 4 walkers to 0 existing sets
  Total number of walkers: 8.0000000000e+00
  Total weight: 8.0000000000e+00

=========================================================
  Start VMC
  File Root optJ12.s000 append = no 
=========================================================
Resetting walkers
  Using the current 4 walkers.
  Total number of walkers: 8.0000000000e+00
  Total weight: 8.0000000000e+00
  Resetting Properties of the walkers 1 x 14

<vmc function="put">
  qmc_counter=0  my_counter=0
  time step      = 1.5000000000e+00
  blocks         = 100
  steps          = 20
  substeps       = 2
  current        = 0
  target samples = 5.0000000000e+03
  walkers/mpi    = 4

  stepsbetweensamples = 3
  SpinMoves      = no
<parameter name="blocks" condition="int">100</parameter>
<parameter name="blocks_between_recompute" condition="int">0</parameter>
<parameter name="check_properties" condition="int">100</parameter>
<parameter name="checkproperties" condition="int">100</parameter>
<parameter name="current" condition="int">0</parameter>
<parameter name="dmcwalkersperthread" condition="real">6.2500000000e+02</parameter>
<parameter name="maxcpusecs" condition="real">3.6000000000e+05</parameter>
<parameter name="record_configs" condition="int">0</parameter>
<parameter name="record_walkers" condition="int">3</parameter>
<parameter name="recordconfigs" condition="int">0</parameter>
<parameter name="recordwalkers" condition="int">3</parameter>
<parameter name="rewind" condition="int">0</parameter>
<parameter name="samples" condition="real">5.0000000000e+03</parameter>
<parameter name="samplesperthread" condition="real">6.2500000000e+02</parameter>
<parameter name="spinmass" condition="double">1.0000000000e+00</parameter>
<parameter name="spinmoves" condition="string">no</parameter>
<parameter name="steps" condition="int">20</parameter>
<parameter name="stepsbetweensamples" condition="int">3</parameter>
<parameter name="store_configs" condition="int">0</parameter>
<parameter name="storeconfigs" condition="int">0</parameter>
<parameter name="sub_steps" condition="int">2</parameter>
<parameter name="substeps" condition="int">2</parameter>
<parameter name="tau" condition="au">1.5000000000e+00</parameter>
<parameter name="time_step" condition="au">1.5000000000e+00</parameter>
<parameter name="timestep" condition="au">1.5000000000e+00</parameter>
<parameter name="use_drift" condition="string">yes</parameter>
<parameter name="usedrift" condition="string">yes</parameter>
<parameter name="walkers" condition="int">4</parameter>
<parameter name="warmup_steps" condition="int">0</parameter>
<parameter name="warmupsteps" condition="int">0</parameter>
  DumpConfig==false Nothing (configurations, state) will be saved.
  Walker Samples are dumped every 3 steps.
</vmc>
  Set drift_modifier UNR parameter a = 1.0000000000e+00
  Adding a default LocalEnergyEstimator for the MainEstimator 
 Using QMCCostFunction::QMCCostFunction
  Set drift_modifier UNR parameter a = 1.0000000000e+00
  Adding a default LocalEnergyEstimator for the MainEstimator 
<optimization-report>
<vmc stage="main" blocks="100">
  CloneManager::makeClones makes 4 clones for W/Psi/H.
  Cloning methods for both Psi and H are used
===== Memory Usage before cloning =====
Available memory on node 0, free + buffers : 253 MB
Memory footprint by rank 0 on node 0       : 31 MB
==================================================
===== Memory Usage after cloning =====
Available memory on node 0, free + buffers : 250 MB
Memory footprint by rank 0 on node 0       : 32 MB
==================================================
  Initial partition of walkers 0 1 2 3 4 

  Using Particle by Particle moves
  Walker moves with drift
  Total Sample Size   =5000
  Walker distribution on root = 0 1 2 3 4 
  Using Locality Approximation
===== Memory Usage after the buffer registration =====
Available memory on node 0, free + buffers : 249 MB
Memory footprint by rank 0 on node 0       : 33 MB
==================================================
  Anonymous Buffer size per walker : 17344 Bytes.
MEMORY increase 0 MB VMC::resetRun
====================================================
  SimpleFixedNodeBranch::finalize after a VMC block
    QMC counter        = 0
    time step          = 1.5
    reference energy   = -2.14999
    reference variance = 0.481005
====================================================
  Execution time = 4.8671e+00
</vmc>
<opt stage="setup">
  <log>
   Reading configurations from h5FileRoot optJ12.s000
  QMCCostFunction is created with 4 threads.
  Using Nonlocal PP in Opt: NonLocalECP
   Number of samples loaded to each thread : 625 625 625 625 
  VMC Eavg = -2.1663e+00
  VMC Evar = 5.3915e-01
  Total weights = 5.0000e+03
  Execution time = 9.4209e-01
  </log>
</opt>
<opt stage="main" walkers="5000">
  <log>

*****************************************
Building overlap and Hamiltonian matrices
*****************************************

Among totally 40 optimized parameters, largest LM parameter change : 4.2628e-01 at parameter 30

******************************************************************************
Init Cost =   5.3915e-01    New Cost =   3.4784e-01  Delta Cost =  -1.9131e-01
******************************************************************************

The new set of parameters is valid. Updating the trial wave function!

*****************************************************************************
Applying the update for shift_i =   1.0000e-02     and shift_s =   2.5000e-01
*****************************************************************************
  Execution time = 7.6893e+00
  </log>
  <optVariables href="optJ12.s000.opt.xml">
eBe_0                -6.876702e-02 1 1  ON 0
eBe_1                -7.561837e-02 1 1  ON 1
eBe_2                -7.123862e-02 1 1  ON 2
eBe_3                -6.260012e-02 1 1  ON 3
eBe_4                -4.824829e-02 1 1  ON 4
eBe_5                -2.760523e-02 1 1  ON 5
eBe_6                -1.998088e-02 1 1  ON 6
eBe_7                -8.454112e-03 1 1  ON 7
eBe_8                 7.953692e-04 1 1  ON 8
eBe_9                -2.587948e-03 1 1  ON 9
 eH_0                -1.372582e-01 1 1  ON 10
 eH_1                -1.133238e-01 1 1  ON 11
 eH_2                -9.278832e-02 1 1  ON 12
 eH_3                -7.883671e-02 1 1  ON 13
 eH_4                -5.146798e-02 1 1  ON 14
 eH_5                -2.935770e-02 1 1  ON 15
 eH_6                -1.823573e-02 1 1  ON 16
 eH_7                 4.278276e-03 1 1  ON 17
 eH_8                 4.673988e-03 1 1  ON 18
 eH_9                 4.507964e-03 1 1  ON 19
 uu_0                 2.666296e-02 1 1  ON 20
 uu_1                 5.037372e-02 1 1  ON 21
 uu_2                 7.884726e-02 1 1  ON 22
 uu_3                 1.248737e-01 1 1  ON 23
 uu_4                 4.770189e-02 1 1  ON 24
 uu_5                 2.065674e-02 1 1  ON 25
 uu_6                 6.049311e-03 1 1  ON 26
 uu_7                -2.180940e-03 1 1  ON 27
 uu_8                -6.016613e-03 1 1  ON 28
 uu_9                -3.666420e-03 1 1  ON 29
 ud_0                 4.262786e-01 1 1  ON 30
 ud_1                 3.596697e-01 1 1  ON 31
 ud_2                 2.460843e-01 1 1  ON 32
 ud_3                 1.669068e-01 1 1  ON 33
 ud_4                 1.065748e-01 1 1  ON 34
 ud_5                 6.083898e-02 1 1  ON 35
 ud_6                 3.232451e-02 1 1  ON 36
 ud_7                 1.073351e-02 1 1  ON 37
 ud_8                 2.011881e-03 1 1  ON 38
 ud_9                -6.121194e-03 1 1  ON 39
  </optVariables>
   Restore the number of walkers to 4, removing 0 walkers.
</opt>
</optimization-report>
  QMC Execution time = 7.694 secs

=========================================================
  Start QMCFixedSampleLinearOptimize
  File Root optJ12.s001 append = no 
=========================================================
  Skip QMCDriver::putQMCInfo 
  Resetting Properties of the walkers 1 x 14

=========================================================
  Start VMC
  File Root optJ12.s001 append = no 
=========================================================
Using existing walkers 
  Resetting Properties of the walkers 1 x 14

<vmc function="put">
  qmc_counter=1  my_counter=0
  time step      = 1.5
  blocks         = 100
  steps          = 20
  substeps       = 2
  current        = 0
  target samples = 5000
  walkers/mpi    = 4

  stepsbetweensamples = 3
  SpinMoves      = no
<parameter name="blocks" condition="int">100</parameter>
<parameter name="blocks_between_recompute" condition="int">0</parameter>
<parameter name="check_properties" condition="int">100</parameter>
<parameter name="checkproperties" condition="int">100</parameter>
<parameter name="current" condition="int">0</parameter>
<parameter name="dmcwalkersperthread" condition="real">625</parameter>
<parameter name="maxcpusecs" condition="real">3.6e+05</parameter>
<parameter name="record_configs" condition="int">0</parameter>
<parameter name="record_walkers" condition="int">3</parameter>
<parameter name="recordconfigs" condition="int">0</parameter>
<parameter name="recordwalkers" condition="int">3</parameter>
<parameter name="rewind" condition="int">0</parameter>
<parameter name="samples" condition="real">5000</parameter>
<parameter name="samplesperthread" condition="real">625</parameter>
<parameter name="spinmass" condition="double">1</parameter>
<parameter name="spinmoves" condition="string">no</parameter>
<parameter name="steps" condition="int">20</parameter>
<parameter name="stepsbetweensamples" condition="int">3</parameter>
<parameter name="store_configs" condition="int">0</parameter>
<parameter name="storeconfigs" condition="int">0</parameter>
<parameter name="sub_steps" condition="int">2</parameter>
<parameter name="substeps" condition="int">2</parameter>
<parameter name="tau" condition="au">1.5</parameter>
<parameter name="time_step" condition="au">1.5</parameter>
<parameter name="timestep" condition="au">1.5</parameter>
<parameter name="use_drift" condition="string">yes</parameter>
<parameter name="usedrift" condition="string">yes</parameter>
<parameter name="walkers" condition="int">4</parameter>
<parameter name="warmup_steps" condition="int">0</parameter>
<parameter name="warmupsteps" condition="int">0</parameter>
  DumpConfig==false Nothing (configurations, state) will be saved.
  Walker Samples are dumped every 3 steps.
</vmc>
    Restarting, cummulative properties:
      energy     = -2.15
      variance   = 0
      r2accepted = 1e-10
      r2proposed = 1e-10
  Set drift_modifier UNR parameter a = 1
  Adding a default LocalEnergyEstimator for the MainEstimator 
 Using QMCCostFunction::QMCCostFunction
  Set drift_modifier UNR parameter a = 1.0000e+00
<optimization-report>
<vmc stage="main" blocks="100">
  Cannot make clones again. Use existing 4 clones
  Initial partition of walkers 0 1 2 3 4 

  Using Particle by Particle moves
  Walker moves with drift
  Total Sample Size   =5000
  Walker distribution on root = 0 1 2 3 4 
  Using Locality Approximation
===== Memory Usage after the buffer registration =====
Available memory on node 0, free + buffers : 537 MB
Memory footprint by rank 0 on node 0       : 38 MB
==================================================
  Anonymous Buffer size per walker : 17344 Bytes.
MEMORY increase 0 MB VMC::resetRun
====================================================
  SimpleFixedNodeBranch::finalize after a VMC block
    QMC counter        = 1
    time step          = 1.5
    reference energy   = -2.16426
    reference variance = 0.0177696
====================================================
  Execution time = 4.1670e+00
</vmc>
<opt stage="setup">
  <log>
   Reading configurations from h5FileRoot optJ12.s001
  QMCCostFunction is created with 4 threads.
  Using Nonlocal PP in Opt: NonLocalECP
   Number of samples loaded to each thread : 625 625 625 625 
  VMC Eavg = -2.2323e+00
  VMC Evar = 1.2731e-01
  Total weights = 5.0000e+03
  Execution time = 8.8159e-01
  </log>
</opt>
<opt stage="main" walkers="5000">
  <log>

*****************************************
Building overlap and Hamiltonian matrices
*****************************************

Among totally 40 optimized parameters, largest LM parameter change : 2.5197e-01 at parameter 30

******************************************************************************
Init Cost =   1.2731e-01    New Cost =   9.5630e-02  Delta Cost =  -3.1681e-02
******************************************************************************

The new set of parameters is valid. Updating the trial wave function!

*****************************************************************************
Applying the update for shift_i =   1.0000e-02     and shift_s =   6.2500e-02
*****************************************************************************
  Execution time = 7.0589e+00
  </log>
  <optVariables href="optJ12.s001.opt.xml">
eBe_0                -1.963042e-01 1 1  ON 0
eBe_1                -1.769113e-01 1 1  ON 1
eBe_2                -1.258001e-01 1 1  ON 2
eBe_3                -1.059957e-01 1 1  ON 3
eBe_4                -7.974852e-02 1 1  ON 4
eBe_5                -5.759899e-02 1 1  ON 5
eBe_6                -3.721170e-02 1 1  ON 6
eBe_7                -1.888211e-02 1 1  ON 7
eBe_8                -4.367180e-03 1 1  ON 8
eBe_9                 2.076401e-03 1 1  ON 9
 eH_0                -2.536428e-01 1 1  ON 10
 eH_1                -2.254461e-01 1 1  ON 11
 eH_2                -1.983060e-01 1 1  ON 12
 eH_3                -1.649664e-01 1 1  ON 13
 eH_4                -1.235674e-01 1 1  ON 14
 eH_5                -9.292096e-02 1 1  ON 15
 eH_6                -6.821047e-02 1 1  ON 16
 eH_7                -3.124715e-02 1 1  ON 17
 eH_8                -1.219375e-02 1 1  ON 18
 eH_9                -3.006828e-04 1 1  ON 19
 uu_0                 2.724955e-02 1 1  ON 20
 uu_1                 7.014339e-02 1 1  ON 21
 uu_2                 1.516388e-01 1 1  ON 22
 uu_3                 1.781073e-01 1 1  ON 23
 uu_4                 1.008503e-01 1 1  ON 24
 uu_5                 5.487273e-02 1 1  ON 25
 uu_6                 2.006522e-02 1 1  ON 26
 uu_7                 4.336848e-03 1 1  ON 27
 uu_8                -2.979075e-03 1 1  ON 28
 uu_9                -3.027123e-03 1 1  ON 29
 ud_0                 6.782509e-01 1 1  ON 30
 ud_1                 5.663138e-01 1 1  ON 31
 ud_2                 4.165074e-01 1 1  ON 32
 ud_3                 2.967270e-01 1 1  ON 33
 ud_4                 1.995790e-01 1 1  ON 34
 ud_5                 1.263947e-01 1 1  ON 35
 ud_6                 7.105725e-02 1 1  ON 36
 ud_7                 3.409601e-02 1 1  ON 37
 ud_8                 1.175341e-02 1 1  ON 38
 ud_9                 1.069903e-04 1 1  ON 39
  </optVariables>
   Restore the number of walkers to 4, removing 0 walkers.
</opt>
</optimization-report>
  QMC Execution time = 7.06 secs

=========================================================
  Start QMCFixedSampleLinearOptimize
  File Root optJ12.s002 append = no 
=========================================================
  Skip QMCDriver::putQMCInfo 
  Resetting Properties of the walkers 1 x 14

=========================================================
  Start VMC
  File Root optJ12.s002 append = no 
=========================================================
Using existing walkers 
  Resetting Properties of the walkers 1 x 14

<vmc function="put">
  qmc_counter=2  my_counter=0
  time step      = 1.5
  blocks         = 100
  steps          = 20
  substeps       = 2
  current        = 0
  target samples = 5000
  walkers/mpi    = 4

  stepsbetweensamples = 3
  SpinMoves      = no
<parameter name="blocks" condition="int">100</parameter>
<parameter name="blocks_between_recompute" condition="int">0</parameter>
<parameter name="check_properties" condition="int">100</parameter>
<parameter name="checkproperties" condition="int">100</parameter>
<parameter name="current" condition="int">0</parameter>
<parameter name="dmcwalkersperthread" condition="real">625</parameter>
<parameter name="maxcpusecs" condition="real">3.6e+05</parameter>
<parameter name="record_configs" condition="int">0</parameter>
<parameter name="record_walkers" condition="int">3</parameter>
<parameter name="recordconfigs" condition="int">0</parameter>
<parameter name="recordwalkers" condition="int">3</parameter>
<parameter name="rewind" condition="int">0</parameter>
<parameter name="samples" condition="real">5000</parameter>
<parameter name="samplesperthread" condition="real">625</parameter>
<parameter name="spinmass" condition="double">1</parameter>
<parameter name="spinmoves" condition="string">no</parameter>
<parameter name="steps" condition="int">20</parameter>
<parameter name="stepsbetweensamples" condition="int">3</parameter>
<parameter name="store_configs" condition="int">0</parameter>
<parameter name="storeconfigs" condition="int">0</parameter>
<parameter name="sub_steps" condition="int">2</parameter>
<parameter name="substeps" condition="int">2</parameter>
<parameter name="tau" condition="au">1.5</parameter>
<parameter name="time_step" condition="au">1.5</parameter>
<parameter name="timestep" condition="au">1.5</parameter>
<parameter name="use_drift" condition="string">yes</parameter>
<parameter name="usedrift" condition="string">yes</parameter>
<parameter name="walkers" condition="int">4</parameter>
<parameter name="warmup_steps" condition="int">0</parameter>
<parameter name="warmupsteps" condition="int">0</parameter>
  DumpConfig==false Nothing (configurations, state) will be saved.
  Walker Samples are dumped every 3 steps.
</vmc>
    Restarting, cummulative properties:
      energy     = -2.157
      variance   = 0
      r2accepted = 1e-10
      r2proposed = 1e-10
  Set drift_modifier UNR parameter a = 1
  Adding a default LocalEnergyEstimator for the MainEstimator 
 Using QMCCostFunction::QMCCostFunction
  Set drift_modifier UNR parameter a = 1.0000e+00
<optimization-report>
<vmc stage="main" blocks="100">
  Cannot make clones again. Use existing 4 clones
  Initial partition of walkers 0 1 2 3 4 

  Using Particle by Particle moves
  Walker moves with drift
  Total Sample Size   =5000
  Walker distribution on root = 0 1 2 3 4 
  Using Locality Approximation
===== Memory Usage after the buffer registration =====
Available memory on node 0, free + buffers : 541 MB
Memory footprint by rank 0 on node 0       : 41 MB
==================================================
  Anonymous Buffer size per walker : 17344 Bytes.
MEMORY increase 0 MB VMC::resetRun
====================================================
  SimpleFixedNodeBranch::finalize after a VMC block
    QMC counter        = 2
    time step          = 1.5
    reference energy   = -2.27056
    reference variance = 0.0160017
====================================================
  Execution time = 4.6149e+00
</vmc>
<opt stage="setup">
  <log>
   Reading configurations from h5FileRoot optJ12.s002
  QMCCostFunction is created with 4 threads.
  Using Nonlocal PP in Opt: NonLocalECP
   Number of samples loaded to each thread : 625 625 625 625 
  VMC Eavg = -2.2275e+00
  VMC Evar = 2.0263e-01
  Total weights = 5.0000e+03
  Execution time = 9.1571e-01
  </log>
</opt>
<opt stage="main" walkers="5000">
  <log>

*****************************************
Building overlap and Hamiltonian matrices
*****************************************

Among totally 40 optimized parameters, largest LM parameter change : 1.6220e-01 at parameter 30

******************************************************************************
Init Cost =   2.0263e-01    New Cost =   1.9398e-01  Delta Cost =  -8.6481e-03
******************************************************************************

The new set of parameters is valid. Updating the trial wave function!

*****************************************************************************
Applying the update for shift_i =   1.0000e-02     and shift_s =   1.5625e-02
*****************************************************************************
  Execution time = 7.9428e+00
  </log>
  <optVariables href="optJ12.s002.opt.xml">
eBe_0                -2.289991e-01 1 1  ON 0
eBe_1                -2.291753e-01 1 1  ON 1
eBe_2                -1.943504e-01 1 1  ON 2
eBe_3                -1.739484e-01 1 1  ON 3
eBe_4                -1.482323e-01 1 1  ON 4
eBe_5                -1.138857e-01 1 1  ON 5
eBe_6                -8.010534e-02 1 1  ON 6
eBe_7                -5.177260e-02 1 1  ON 7
eBe_8                -2.146193e-02 1 1  ON 8
eBe_9                 7.996014e-04 1 1  ON 9
 eH_0                -2.974412e-01 1 1  ON 10
 eH_1                -2.707244e-01 1 1  ON 11
 eH_2                -2.404392e-01 1 1  ON 12
 eH_3                -2.045386e-01 1 1  ON 13
 eH_4                -1.577535e-01 1 1  ON 14
 eH_5                -1.166363e-01 1 1  ON 15
 eH_6                -8.860149e-02 1 1  ON 16
 eH_7                -4.918811e-02 1 1  ON 17
 eH_8                -2.888800e-02 1 1  ON 18
 eH_9                -1.273875e-02 1 1  ON 19
 uu_0                 2.876777e-02 1 1  ON 20
 uu_1                 1.056794e-01 1 1  ON 21
 uu_2                 1.873436e-01 1 1  ON 22
 uu_3                 1.662432e-01 1 1  ON 23
 uu_4                 1.115920e-01 1 1  ON 24
 uu_5                 7.202471e-02 1 1  ON 25
 uu_6                 4.461227e-02 1 1  ON 26
 uu_7                 2.786880e-02 1 1  ON 27
 uu_8                 1.218567e-02 1 1  ON 28
 uu_9                 4.985128e-03 1 1  ON 29
 ud_0                 8.404522e-01 1 1  ON 30
 ud_1                 6.924413e-01 1 1  ON 31
 ud_2                 5.222621e-01 1 1  ON 32
 ud_3                 3.938372e-01 1 1  ON 33
 ud_4                 2.854489e-01 1 1  ON 34
 ud_5                 1.957945e-01 1 1  ON 35
 ud_6                 1.248780e-01 1 1  ON 36
 ud_7                 7.223121e-02 1 1  ON 37
 ud_8                 3.761066e-02 1 1  ON 38
 ud_9                 1.528722e-02 1 1  ON 39
  </optVariables>
   Restore the number of walkers to 4, removing 0 walkers.
</opt>
</optimization-report>
  QMC Execution time = 7.944 secs
Loop execution max-interations = 3
BRANCH resetRun
  Continue with the same input as the previous block.
 SimpleFixedNodeBranch::resetRun detected changes in <parameter>'s 
 BranchMode : 0000001100 0000001100
 iParam (old):                200                 1                 2                 0                 0                 0                 1                 0
 iParam (new):                200                 1                 2                 0                 0                 0                 1                 0
 vParam (old):                1.5               0.1                 1                 1                 1                 1                 1                 1                 1                 0                 0                 1                10                 1                 1                 1                 1
 vParam (new):                1.5               0.1                 1                 1                 1                 1                 1                 1                 1                 0                 0                 1                10                 1                 1                 1                 1

=========================================================
  Start QMCFixedSampleLinearOptimize
  File Root optJ12.s003 append = no 
=========================================================
  Skip QMCDriver::putQMCInfo 
  Resetting Properties of the walkers 1 x 14

=========================================================
  Start VMC
  File Root optJ12.s003 append = no 
=========================================================
Resetting walkers
  Using the current 4 walkers.
  Total number of walkers: 8
  Total weight: 8
  Resetting Properties of the walkers 1 x 14

<vmc function="put">
  qmc_counter=0  my_counter=0
  time step      = 1.5
  blocks         = 100
  steps          = 20
  substeps       = 2
  current        = 0
  target samples = 10000
  walkers/mpi    = 4

  stepsbetweensamples = 1
  SpinMoves      = no
<parameter name="blocks" condition="int">100</parameter>
<parameter name="blocks_between_recompute" condition="int">0</parameter>
<parameter name="check_properties" condition="int">100</parameter>
<parameter name="checkproperties" condition="int">100</parameter>
<parameter name="current" condition="int">0</parameter>
<parameter name="dmcwalkersperthread" condition="real">1250</parameter>
<parameter name="maxcpusecs" condition="real">360000</parameter>
<parameter name="record_configs" condition="int">0</parameter>
<parameter name="record_walkers" condition="int">1</parameter>
<parameter name="recordconfigs" condition="int">0</parameter>
<parameter name="recordwalkers" condition="int">1</parameter>
<parameter name="rewind" condition="int">0</parameter>
<parameter name="samples" condition="real">10000</parameter>
<parameter name="samplesperthread" condition="real">1250</parameter>
<parameter name="spinmass" condition="double">1</parameter>
<parameter name="spinmoves" condition="string">no</parameter>
<parameter name="steps" condition="int">20</parameter>
<parameter name="stepsbetweensamples" condition="int">1</parameter>
<parameter name="store_configs" condition="int">0</parameter>
<parameter name="storeconfigs" condition="int">0</parameter>
<parameter name="sub_steps" condition="int">2</parameter>
<parameter name="substeps" condition="int">2</parameter>
<parameter name="tau" condition="au">1.5</parameter>
<parameter name="time_step" condition="au">1.5</parameter>
<parameter name="timestep" condition="au">1.5</parameter>
<parameter name="use_drift" condition="string">yes</parameter>
<parameter name="usedrift" condition="string">yes</parameter>
<parameter name="walkers" condition="int">4</parameter>
<parameter name="warmup_steps" condition="int">0</parameter>
<parameter name="warmupsteps" condition="int">0</parameter>
  DumpConfig==false Nothing (configurations, state) will be saved.
  Walker Samples are dumped every 1 steps.
</vmc>
    Restarting, cummulative properties:
      energy     = -2.194936516
      variance   = 0
      r2accepted = 1e-10
      r2proposed = 1e-10
  Set drift_modifier UNR parameter a = 1
  Adding a default LocalEnergyEstimator for the MainEstimator 
 Using QMCCostFunction::QMCCostFunction
  Set drift_modifier UNR parameter a = 1.0000000000e+00
<optimization-report>
<vmc stage="main" blocks="100">
  Cannot make clones again. Use existing 4 clones
  Initial partition of walkers 0 1 2 3 4 

  Using Particle by Particle moves
  Walker moves with drift
  Total Sample Size   =10000
  Walker distribution on root = 0 1 2 3 4 
  Using Locality Approximation
===== Memory Usage after the buffer registration =====
Available memory on node 0, free + buffers : 478 MB
Memory footprint by rank 0 on node 0       : 42 MB
==================================================
  Anonymous Buffer size per walker : 17344 Bytes.
MEMORY increase 0 MB VMC::resetRun
====================================================
  SimpleFixedNodeBranch::finalize after a VMC block
    QMC counter        = 3
    time step          = 1.5
    reference energy   = -2.1394
    reference variance = 0.0576833
====================================================
  Execution time = 5.0798e+00
</vmc>
<opt stage="setup">
  <log>
   Reading configurations from h5FileRoot optJ12.s003
  QMCCostFunction is created with 4 threads.
  Using Nonlocal PP in Opt: NonLocalECP
   Number of samples loaded to each thread : 1250 1250 1250 1250 
  VMC Eavg = -2.2290e+00
  VMC Evar = 3.6998e-01
  Total weights = 1.0000e+04
  Execution time = 1.9467e+00
  </log>
</opt>
<opt stage="main" walkers="10000">
  <log>

*****************************************
Building overlap and Hamiltonian matrices
*****************************************

Among totally 40 optimized parameters, largest LM parameter change : 8.3022e+03 at parameter 20

******************************************************************************
Init Cost =   3.6998e-01    New Cost =         -nan  Delta Cost =         -nan
******************************************************************************

The new set of parameters is not valid. Revert to the old set!

*****************************************************************************
Applying the update for shift_i =   1.0000e-02     and shift_s =   4.0000e+00
*****************************************************************************
  Execution time = 1.1144e+01
  </log>
  <optVariables href="optJ12.s003.opt.xml">
eBe_0                -2.289991e-01 1 1  ON 0
eBe_1                -2.291753e-01 1 1  ON 1
eBe_2                -1.943504e-01 1 1  ON 2
eBe_3                -1.739484e-01 1 1  ON 3
eBe_4                -1.482323e-01 1 1  ON 4
eBe_5                -1.138857e-01 1 1  ON 5
eBe_6                -8.010534e-02 1 1  ON 6
eBe_7                -5.177260e-02 1 1  ON 7
eBe_8                -2.146193e-02 1 1  ON 8
eBe_9                 7.996014e-04 1 1  ON 9
 eH_0                -2.974412e-01 1 1  ON 10
 eH_1                -2.707244e-01 1 1  ON 11
 eH_2                -2.404392e-01 1 1  ON 12
 eH_3                -2.045386e-01 1 1  ON 13
 eH_4                -1.577535e-01 1 1  ON 14
 eH_5                -1.166363e-01 1 1  ON 15
 eH_6                -8.860149e-02 1 1  ON 16
 eH_7                -4.918811e-02 1 1  ON 17
 eH_8                -2.888800e-02 1 1  ON 18
 eH_9                -1.273875e-02 1 1  ON 19
 uu_0                 2.876777e-02 1 1  ON 20
 uu_1                 1.056794e-01 1 1  ON 21
 uu_2                 1.873436e-01 1 1  ON 22
 uu_3                 1.662432e-01 1 1  ON 23
 uu_4                 1.115920e-01 1 1  ON 24
 uu_5                 7.202471e-02 1 1  ON 25
 uu_6                 4.461227e-02 1 1  ON 26
 uu_7                 2.786880e-02 1 1  ON 27
 uu_8                 1.218567e-02 1 1  ON 28
 uu_9                 4.985128e-03 1 1  ON 29
 ud_0                 8.404522e-01 1 1  ON 30
 ud_1                 6.924413e-01 1 1  ON 31
 ud_2                 5.222621e-01 1 1  ON 32
 ud_3                 3.938372e-01 1 1  ON 33
 ud_4                 2.854489e-01 1 1  ON 34
 ud_5                 1.957945e-01 1 1  ON 35
 ud_6                 1.248780e-01 1 1  ON 36
 ud_7                 7.223121e-02 1 1  ON 37
 ud_8                 3.761066e-02 1 1  ON 38
 ud_9                 1.528722e-02 1 1  ON 39
  </optVariables>
   Restore the number of walkers to 4, removing 0 walkers.
</opt>
</optimization-report>
  QMC Execution time = 11.14 secs

=========================================================
  Start QMCFixedSampleLinearOptimize
  File Root optJ12.s004 append = no 
=========================================================
  Skip QMCDriver::putQMCInfo 
  Resetting Properties of the walkers 1 x 14

=========================================================
  Start VMC
  File Root optJ12.s004 append = no 
=========================================================
Using existing walkers 
  Resetting Properties of the walkers 1 x 14

<vmc function="put">
  qmc_counter=1  my_counter=0
  time step      = 1.5
  blocks         = 100
  steps          = 20
  substeps       = 2
  current        = 0
  target samples = 1e+04
  walkers/mpi    = 4

  stepsbetweensamples = 1
  SpinMoves      = no
<parameter name="blocks" condition="int">100</parameter>
<parameter name="blocks_between_recompute" condition="int">0</parameter>
<parameter name="check_properties" condition="int">100</parameter>
<parameter name="checkproperties" condition="int">100</parameter>
<parameter name="current" condition="int">0</parameter>
<parameter name="dmcwalkersperthread" condition="real">1250</parameter>
<parameter name="maxcpusecs" condition="real">3.6e+05</parameter>
<parameter name="record_configs" condition="int">0</parameter>
<parameter name="record_walkers" condition="int">1</parameter>
<parameter name="recordconfigs" condition="int">0</parameter>
<parameter name="recordwalkers" condition="int">1</parameter>
<parameter name="rewind" condition="int">0</parameter>
<parameter name="samples" condition="real">1e+04</parameter>
<parameter name="samplesperthread" condition="real">1250</parameter>
<parameter name="spinmass" condition="double">1</parameter>
<parameter name="spinmoves" condition="string">no</parameter>
<parameter name="steps" condition="int">20</parameter>
<parameter name="stepsbetweensamples" condition="int">1</parameter>
<parameter name="store_configs" condition="int">0</parameter>
<parameter name="storeconfigs" condition="int">0</parameter>
<parameter name="sub_steps" condition="int">2</parameter>
<parameter name="substeps" condition="int">2</parameter>
<parameter name="tau" condition="au">1.5</parameter>
<parameter name="time_step" condition="au">1.5</parameter>
<parameter name="timestep" condition="au">1.5</parameter>
<parameter name="use_drift" condition="string">yes</parameter>
<parameter name="usedrift" condition="string">yes</parameter>
<parameter name="walkers" condition="int">4</parameter>
<parameter name="warmup_steps" condition="int">0</parameter>
<parameter name="warmupsteps" condition="int">0</parameter>
  DumpConfig==false Nothing (configurations, state) will be saved.
  Walker Samples are dumped every 1 steps.
</vmc>
    Restarting, cummulative properties:
      energy     = -2.181
      variance   = 0
      r2accepted = 1e-10
      r2proposed = 1e-10
  Set drift_modifier UNR parameter a = 1
  Adding a default LocalEnergyEstimator for the MainEstimator 
 Using QMCCostFunction::QMCCostFunction
  Set drift_modifier UNR parameter a = 1.0000e+00
<optimization-report>
<vmc stage="main" blocks="100">
  Cannot make clones again. Use existing 4 clones
  Initial partition of walkers 0 1 2 3 4 

  Using Particle by Particle moves
  Walker moves with drift
  Total Sample Size   =10000
  Walker distribution on root = 0 1 2 3 4 
  Using Locality Approximation
===== Memory Usage after the buffer registration =====
Available memory on node 0, free + buffers : 463 MB
Memory footprint by rank 0 on node 0       : 49 MB
==================================================
  Anonymous Buffer size per walker : 17344 Bytes.
MEMORY increase 0 MB VMC::resetRun
====================================================
  SimpleFixedNodeBranch::finalize after a VMC block
    QMC counter        = 4
    time step          = 1.5
    reference energy   = -2.10168
    reference variance = 0.0959279
====================================================
  Execution time = 4.7887e+00
</vmc>
<opt stage="setup">
  <log>
   Reading configurations from h5FileRoot optJ12.s004
  QMCCostFunction is created with 4 threads.
  Using Nonlocal PP in Opt: NonLocalECP
   Number of samples loaded to each thread : 1250 1250 1250 1250 
  VMC Eavg = -2.2395e+00
  VMC Evar = 1.8481e-01
  Total weights = 1.0000e+04
  Execution time = 2.0355e+00
  </log>
</opt>
<opt stage="main" walkers="10000">
  <log>

*****************************************
Building overlap and Hamiltonian matrices
*****************************************

Among totally 40 optimized parameters, largest LM parameter change : 7.5772e-02 at parameter 0

******************************************************************************
Init Cost =   1.8481e-01    New Cost =   1.7814e-01  Delta Cost =  -6.6612e-03
******************************************************************************

The new set of parameters is valid. Updating the trial wave function!

*****************************************************************************
Applying the update for shift_i =   1.0000e-02     and shift_s =   1.0000e+00
*****************************************************************************
  Execution time = 1.0581e+01
  </log>
  <optVariables href="optJ12.s004.opt.xml">
eBe_0                -3.047708e-01 1 1  ON 0
eBe_1                -2.379008e-01 1 1  ON 1
eBe_2                -2.023376e-01 1 1  ON 2
eBe_3                -1.799403e-01 1 1  ON 3
eBe_4                -1.510588e-01 1 1  ON 4
eBe_5                -1.188971e-01 1 1  ON 5
eBe_6                -8.061994e-02 1 1  ON 6
eBe_7                -4.983487e-02 1 1  ON 7
eBe_8                -2.115557e-02 1 1  ON 8
eBe_9                -2.407376e-03 1 1  ON 9
 eH_0                -3.195567e-01 1 1  ON 10
 eH_1                -2.853991e-01 1 1  ON 11
 eH_2                -2.550446e-01 1 1  ON 12
 eH_3                -2.176739e-01 1 1  ON 13
 eH_4                -1.707883e-01 1 1  ON 14
 eH_5                -1.323215e-01 1 1  ON 15
 eH_6                -1.040061e-01 1 1  ON 16
 eH_7                -6.003505e-02 1 1  ON 17
 eH_8                -3.625367e-02 1 1  ON 18
 eH_9                -1.703194e-02 1 1  ON 19
 uu_0                 3.470651e-02 1 1  ON 20
 uu_1                 1.487030e-01 1 1  ON 21
 uu_2                 2.227693e-01 1 1  ON 22
 uu_3                 1.683033e-01 1 1  ON 23
 uu_4                 1.261665e-01 1 1  ON 24
 uu_5                 8.743271e-02 1 1  ON 25
 uu_6                 5.106951e-02 1 1  ON 26
 uu_7                 2.854393e-02 1 1  ON 27
 uu_8                 1.517248e-02 1 1  ON 28
 uu_9                 5.080479e-03 1 1  ON 29
 ud_0                 8.739016e-01 1 1  ON 30
 ud_1                 6.973655e-01 1 1  ON 31
 ud_2                 5.365085e-01 1 1  ON 32
 ud_3                 4.067497e-01 1 1  ON 33
 ud_4                 2.975436e-01 1 1  ON 34
 ud_5                 2.081776e-01 1 1  ON 35
 ud_6                 1.381159e-01 1 1  ON 36
 ud_7                 8.567991e-02 1 1  ON 37
 ud_8                 4.688303e-02 1 1  ON 38
 ud_9                 2.273995e-02 1 1  ON 39
  </optVariables>
   Restore the number of walkers to 4, removing 0 walkers.
</opt>
</optimization-report>
  QMC Execution time = 10.58 secs

=========================================================
  Start QMCFixedSampleLinearOptimize
  File Root optJ12.s005 append = no 
=========================================================
  Skip QMCDriver::putQMCInfo 
  Resetting Properties of the walkers 1 x 14

=========================================================
  Start VMC
  File Root optJ12.s005 append = no 
=========================================================
Using existing walkers 
  Resetting Properties of the walkers 1 x 14

<vmc function="put">
  qmc_counter=2  my_counter=0
  time step      = 1.5
  blocks         = 100
  steps          = 20
  substeps       = 2
  current        = 0
  target samples = 1e+04
  walkers/mpi    = 4

  stepsbetweensamples = 1
  SpinMoves      = no
<parameter name="blocks" condition="int">100</parameter>
<parameter name="blocks_between_recompute" condition="int">0</parameter>
<parameter name="check_properties" condition="int">100</parameter>
<parameter name="checkproperties" condition="int">100</parameter>
<parameter name="current" condition="int">0</parameter>
<parameter name="dmcwalkersperthread" condition="real">1250</parameter>
<parameter name="maxcpusecs" condition="real">3.6e+05</parameter>
<parameter name="record_configs" condition="int">0</parameter>
<parameter name="record_walkers" condition="int">1</parameter>
<parameter name="recordconfigs" condition="int">0</parameter>
<parameter name="recordwalkers" condition="int">1</parameter>
<parameter name="rewind" condition="int">0</parameter>
<parameter name="samples" condition="real">1e+04</parameter>
<parameter name="samplesperthread" condition="real">1250</parameter>
<parameter name="spinmass" condition="double">1</parameter>
<parameter name="spinmoves" condition="string">no</parameter>
<parameter name="steps" condition="int">20</parameter>
<parameter name="stepsbetweensamples" condition="int">1</parameter>
<parameter name="store_configs" condition="int">0</parameter>
<parameter name="storeconfigs" condition="int">0</parameter>
<parameter name="sub_steps" condition="int">2</parameter>
<parameter name="substeps" condition="int">2</parameter>
<parameter name="tau" condition="au">1.5</parameter>
<parameter name="time_step" condition="au">1.5</parameter>
<parameter name="timestep" condition="au">1.5</parameter>
<parameter name="use_drift" condition="string">yes</parameter>
<parameter name="usedrift" condition="string">yes</parameter>
<parameter name="walkers" condition="int">4</parameter>
<parameter name="warmup_steps" condition="int">0</parameter>
<parameter name="warmupsteps" condition="int">0</parameter>
  DumpConfig==false Nothing (configurations, state) will be saved.
  Walker Samples are dumped every 1 steps.
</vmc>
    Restarting, cummulative properties:
      energy     = -2.165
      variance   = 0
      r2accepted = 1e-10
      r2proposed = 1e-10
  Set drift_modifier UNR parameter a = 1
  Adding a default LocalEnergyEstimator for the MainEstimator 
 Using QMCCostFunction::QMCCostFunction
  Set drift_modifier UNR parameter a = 1.0000e+00
<optimization-report>
<vmc stage="main" blocks="100">
  Cannot make clones again. Use existing 4 clones
  Initial partition of walkers 0 1 2 3 4 

  Using Particle by Particle moves
  Walker moves with drift
  Total Sample Size   =10000
  Walker distribution on root = 0 1 2 3 4 
  Using Locality Approximation
===== Memory Usage after the buffer registration =====
Available memory on node 0, free + buffers : 653 MB
Memory footprint by rank 0 on node 0       : 50 MB
==================================================
  Anonymous Buffer size per walker : 17344 Bytes.
MEMORY increase 0 MB VMC::resetRun
====================================================
  SimpleFixedNodeBranch::finalize after a VMC block
    QMC counter        = 5
    time step          = 1.5
    reference energy   = -2.33077
    reference variance = 0.00809274
====================================================
  Execution time = 4.4024e+00
</vmc>
<opt stage="setup">
  <log>
   Reading configurations from h5FileRoot optJ12.s005
  QMCCostFunction is created with 4 threads.
  Using Nonlocal PP in Opt: NonLocalECP
   Number of samples loaded to each thread : 1250 1250 1250 1250 
  VMC Eavg = -2.2416e+00
  VMC Evar = 2.4583e-01
  Total weights = 1.0000e+04
  Execution time = 1.8928e+00
  </log>
</opt>
<opt stage="main" walkers="10000">
  <log>

*****************************************
Building overlap and Hamiltonian matrices
*****************************************

Among totally 40 optimized parameters, largest LM parameter change : 6.3203e-02 at parameter 0

******************************************************************************
Init Cost =   2.4583e-01    New Cost =   2.4418e-01  Delta Cost =  -1.6531e-03
******************************************************************************

The new set of parameters is valid. Updating the trial wave function!

*****************************************************************************
Applying the update for shift_i =   1.0000e-02     and shift_s =   2.5000e-01
*****************************************************************************
  Execution time = 1.0050e+01
  </log>
  <optVariables href="optJ12.s005.opt.xml">
eBe_0                -3.679741e-01 1 1  ON 0
eBe_1                -2.613983e-01 1 1  ON 1
eBe_2                -2.170451e-01 1 1  ON 2
eBe_3                -1.917300e-01 1 1  ON 3
eBe_4                -1.588675e-01 1 1  ON 4
eBe_5                -1.238001e-01 1 1  ON 5
eBe_6                -8.495993e-02 1 1  ON 6
eBe_7                -5.231630e-02 1 1  ON 7
eBe_8                -2.661773e-02 1 1  ON 8
eBe_9                -1.162649e-02 1 1  ON 9
 eH_0                -3.227301e-01 1 1  ON 10
 eH_1                -2.891616e-01 1 1  ON 11
 eH_2                -2.543358e-01 1 1  ON 12
 eH_3                -2.166185e-01 1 1  ON 13
 eH_4                -1.736323e-01 1 1  ON 14
 eH_5                -1.357257e-01 1 1  ON 15
 eH_6                -1.090254e-01 1 1  ON 16
 eH_7                -6.629985e-02 1 1  ON 17
 eH_8                -3.446819e-02 1 1  ON 18
 eH_9                -1.458020e-02 1 1  ON 19
 uu_0                 4.915035e-02 1 1  ON 20
 uu_1                 1.971047e-01 1 1  ON 21
 uu_2                 2.600447e-01 1 1  ON 22
 uu_3                 2.189987e-01 1 1  ON 23
 uu_4                 1.661732e-01 1 1  ON 24
 uu_5                 1.171429e-01 1 1  ON 25
 uu_6                 7.131046e-02 1 1  ON 26
 uu_7                 4.157417e-02 1 1  ON 27
 uu_8                 2.042617e-02 1 1  ON 28
 uu_9                 7.588828e-03 1 1  ON 29
 ud_0                 8.949294e-01 1 1  ON 30
 ud_1                 7.072086e-01 1 1  ON 31
 ud_2                 5.455942e-01 1 1  ON 32
 ud_3                 4.139149e-01 1 1  ON 33
 ud_4                 3.047021e-01 1 1  ON 34
 ud_5                 2.129663e-01 1 1  ON 35
 ud_6                 1.429554e-01 1 1  ON 36
 ud_7                 8.800432e-02 1 1  ON 37
 ud_8                 4.772253e-02 1 1  ON 38
 ud_9                 2.419271e-02 1 1  ON 39
  </optVariables>
   Restore the number of walkers to 4, removing 0 walkers.
</opt>
</optimization-report>
  QMC Execution time = 10.05 secs
Loop execution max-interations = 3
BRANCH resetRun
  Continue with the same input as the previous block.
 SimpleFixedNodeBranch::resetRun detected changes in <parameter>'s 
 BranchMode : 0000001100 0000001100
 iParam (old):                200                 1                 5                 0                 0                 0                 1                 0
 iParam (new):                200                 1                 5                 0                 0                 0                 1                 0
 vParam (old):                1.5               0.1                 1                 1                 1                 1                 1                 1                 1                 0                 0                 1                10                 1                 1                 1                 1
 vParam (new):                1.5               0.1                 1                 1                 1                 1                 1                 1                 1                 0                 0                 1                10                 1                 1                 1                 1

=========================================================
  Start QMCFixedSampleLinearOptimize
  File Root optJ12.s006 append = no 
=========================================================
  Skip QMCDriver::putQMCInfo 
  Resetting Properties of the walkers 1 x 14

=========================================================
  Start VMC
  File Root optJ12.s006 append = no 
=========================================================
Resetting walkers
  Using the current 4 walkers.
  Total number of walkers: 8
  Total weight: 8
  Resetting Properties of the walkers 1 x 14

<vmc function="put">
  qmc_counter=0  my_counter=0
  time step      = 1.5
  blocks         = 100
  steps          = 25
  substeps       = 2
  current        = 0
  target samples = 20000
  walkers/mpi    = 4

  stepsbetweensamples = 1
  SpinMoves      = no
<parameter name="blocks" condition="int">100</parameter>
<parameter name="blocks_between_recompute" condition="int">0</parameter>
<parameter name="check_properties" condition="int">100</parameter>
<parameter name="checkproperties" condition="int">100</parameter>
<parameter name="current" condition="int">0</parameter>
<parameter name="dmcwalkersperthread" condition="real">2500</parameter>
<parameter name="maxcpusecs" condition="real">360000</parameter>
<parameter name="record_configs" condition="int">0</parameter>
<parameter name="record_walkers" condition="int">1</parameter>
<parameter name="recordconfigs" condition="int">0</parameter>
<parameter name="recordwalkers" condition="int">1</parameter>
<parameter name="rewind" condition="int">0</parameter>
<parameter name="samples" condition="real">20000</parameter>
<parameter name="samplesperthread" condition="real">2500</parameter>
<parameter name="spinmass" condition="double">1</parameter>
<parameter name="spinmoves" condition="string">no</parameter>
<parameter name="steps" condition="int">25</parameter>
<parameter name="stepsbetweensamples" condition="int">1</parameter>
<parameter name="store_configs" condition="int">0</parameter>
<parameter name="storeconfigs" condition="int">0</parameter>
<parameter name="sub_steps" condition="int">2</parameter>
<parameter name="substeps" condition="int">2</parameter>
<parameter name="tau" condition="au">1.5</parameter>
<parameter name="time_step" condition="au">1.5</parameter>
<parameter name="timestep" condition="au">1.5</parameter>
<parameter name="use_drift" condition="string">yes</parameter>
<parameter name="usedrift" condition="string">yes</parameter>
<parameter name="walkers" condition="int">4</parameter>
<parameter name="warmup_steps" condition="int">0</parameter>
<parameter name="warmupsteps" condition="int">0</parameter>
  DumpConfig==false Nothing (configurations, state) will be saved.
  Walker Samples are dumped every 1 steps.
</vmc>
    Restarting, cummulative properties:
      energy     = -2.192776383
      variance   = 0
      r2accepted = 1e-10
      r2proposed = 1e-10
  Set drift_modifier UNR parameter a = 1
  Adding a default LocalEnergyEstimator for the MainEstimator 
 Using QMCCostFunction::QMCCostFunction
  Set drift_modifier UNR parameter a = 1.0000000000e+00
<optimization-report>
<vmc stage="main" blocks="100">
  Cannot make clones again. Use existing 4 clones
  Initial partition of walkers 0 1 2 3 4 

  Using Particle by Particle moves
  Walker moves with drift
  Total Sample Size   =20000
  Walker distribution on root = 0 1 2 3 4 
  Using Locality Approximation
===== Memory Usage after the buffer registration =====
Available memory on node 0, free + buffers : 656 MB
Memory footprint by rank 0 on node 0       : 52 MB
==================================================
  Anonymous Buffer size per walker : 17344 Bytes.
MEMORY increase 0 MB VMC::resetRun
====================================================
  SimpleFixedNodeBranch::finalize after a VMC block
    QMC counter        = 6
    time step          = 1.5
    reference energy   = -2.2663
    reference variance = 0.0302305
====================================================
  Execution time = 6.0288e+00
</vmc>
<opt stage="setup">
  <log>
   Reading configurations from h5FileRoot optJ12.s006
  QMCCostFunction is created with 4 threads.
  Using Nonlocal PP in Opt: NonLocalECP
   Number of samples loaded to each thread : 2500 2500 2500 2500 
  VMC Eavg = -2.2350e+00
  VMC Evar = 2.8371e-01
  Total weights = 2.0000e+04
  Execution time = 3.8988e+00
  </log>
</opt>
<opt stage="main" walkers="20000">
  <log>

*****************************************
Building overlap and Hamiltonian matrices
*****************************************

Among totally 40 optimized parameters, largest LM parameter change : 4.5676e-02 at parameter 22

******************************************************************************
Init Cost =  -1.9832e+00    New Cost =  -1.9843e+00  Delta Cost =  -1.1335e-03
******************************************************************************

The new set of parameters is valid. Updating the trial wave function!

*****************************************************************************
Applying the update for shift_i =   1.0000e-02     and shift_s =   2.5000e-01
*****************************************************************************
  Execution time = 1.7749e+01
  </log>
  <optVariables href="optJ12.s006.opt.xml">
eBe_0                -3.811832e-01 1 1  ON 0
eBe_1                -2.715032e-01 1 1  ON 1
eBe_2                -2.390160e-01 1 1  ON 2
eBe_3                -2.068459e-01 1 1  ON 3
eBe_4                -1.705704e-01 1 1  ON 4
eBe_5                -1.305051e-01 1 1  ON 5
eBe_6                -8.722037e-02 1 1  ON 6
eBe_7                -5.385365e-02 1 1  ON 7
eBe_8                -2.447834e-02 1 1  ON 8
eBe_9                -9.400807e-03 1 1  ON 9
 eH_0                -3.410489e-01 1 1  ON 10
 eH_1                -3.053678e-01 1 1  ON 11
 eH_2                -2.697800e-01 1 1  ON 12
 eH_3                -2.296452e-01 1 1  ON 13
 eH_4                -1.825810e-01 1 1  ON 14
 eH_5                -1.446297e-01 1 1  ON 15
 eH_6                -1.160215e-01 1 1  ON 16
 eH_7                -6.769704e-02 1 1  ON 17
 eH_8                -3.760350e-02 1 1  ON 18
 eH_9                -1.543104e-02 1 1  ON 19
 uu_0                 4.914069e-02 1 1  ON 20
 uu_1                 1.963472e-01 1 1  ON 21
 uu_2                 3.057210e-01 1 1  ON 22
 uu_3                 2.623960e-01 1 1  ON 23
 uu_4                 1.958878e-01 1 1  ON 24
 uu_5                 1.371368e-01 1 1  ON 25
 uu_6                 8.084751e-02 1 1  ON 26
 uu_7                 4.725464e-02 1 1  ON 27
 uu_8                 2.379854e-02 1 1  ON 28
 uu_9                 1.051233e-02 1 1  ON 29
 ud_0                 9.178877e-01 1 1  ON 30
 ud_1                 7.264951e-01 1 1  ON 31
 ud_2                 5.702166e-01 1 1  ON 32
 ud_3                 4.366472e-01 1 1  ON 33
 ud_4                 3.232881e-01 1 1  ON 34
 ud_5                 2.300408e-01 1 1  ON 35
 ud_6                 1.547409e-01 1 1  ON 36
 ud_7                 9.655134e-02 1 1  ON 37
 ud_8                 5.358333e-02 1 1  ON 38
 ud_9                 2.745560e-02 1 1  ON 39
  </optVariables>
   Restore the number of walkers to 4, removing 0 walkers.
</opt>
</optimization-report>
  QMC Execution time = 17.75 secs

=========================================================
  Start QMCFixedSampleLinearOptimize
  File Root optJ12.s007 append = no 
=========================================================
  Skip QMCDriver::putQMCInfo 
  Resetting Properties of the walkers 1 x 14

=========================================================
  Start VMC
  File Root optJ12.s007 append = no 
=========================================================
Using existing walkers 
  Resetting Properties of the walkers 1 x 14

<vmc function="put">
  qmc_counter=1  my_counter=0
  time step      = 1.5
  blocks         = 100
  steps          = 25
  substeps       = 2
  current        = 0
  target samples = 2e+04
  walkers/mpi    = 4

  stepsbetweensamples = 1
  SpinMoves      = no
<parameter name="blocks" condition="int">100</parameter>
<parameter name="blocks_between_recompute" condition="int">0</parameter>
<parameter name="check_properties" condition="int">100</parameter>
<parameter name="checkproperties" condition="int">100</parameter>
<parameter name="current" condition="int">0</parameter>
<parameter name="dmcwalkersperthread" condition="real">2500</parameter>
<parameter name="maxcpusecs" condition="real">3.6e+05</parameter>
<parameter name="record_configs" condition="int">0</parameter>
<parameter name="record_walkers" condition="int">1</parameter>
<parameter name="recordconfigs" condition="int">0</parameter>
<parameter name="recordwalkers" condition="int">1</parameter>
<parameter name="rewind" condition="int">0</parameter>
<parameter name="samples" condition="real">2e+04</parameter>
<parameter name="samplesperthread" condition="real">2500</parameter>
<parameter name="spinmass" condition="double">1</parameter>
<parameter name="spinmoves" condition="string">no</parameter>
<parameter name="steps" condition="int">25</parameter>
<parameter name="stepsbetweensamples" condition="int">1</parameter>
<parameter name="store_configs" condition="int">0</parameter>
<parameter name="storeconfigs" condition="int">0</parameter>
<parameter name="sub_steps" condition="int">2</parameter>
<parameter name="substeps" condition="int">2</parameter>
<parameter name="tau" condition="au">1.5</parameter>
<parameter name="time_step" condition="au">1.5</parameter>
<parameter name="timestep" condition="au">1.5</parameter>
<parameter name="use_drift" condition="string">yes</parameter>
<parameter name="usedrift" condition="string">yes</parameter>
<parameter name="walkers" condition="int">4</parameter>
<parameter name="warmup_steps" condition="int">0</parameter>
<parameter name="warmupsteps" condition="int">0</parameter>
  DumpConfig==false Nothing (configurations, state) will be saved.
  Walker Samples are dumped every 1 steps.
</vmc>
    Restarting, cummulative properties:
      energy     = -2.203
      variance   = 0
      r2accepted = 1e-10
      r2proposed = 1e-10
  Set drift_modifier UNR parameter a = 1
  Adding a default LocalEnergyEstimator for the MainEstimator 
 Using QMCCostFunction::QMCCostFunction
  Set drift_modifier UNR parameter a = 1.0000e+00
<optimization-report>
<vmc stage="main" blocks="100">
  Cannot make clones again. Use existing 4 clones
  Initial partition of walkers 0 1 2 3 4 

  Using Particle by Particle moves
  Walker moves with drift
  Total Sample Size   =20000
  Walker distribution on root = 0 1 2 3 4 
  Using Locality Approximation
===== Memory Usage after the buffer registration =====
Available memory on node 0, free + buffers : 413 MB
Memory footprint by rank 0 on node 0       : 62 MB
==================================================
  Anonymous Buffer size per walker : 17344 Bytes.
MEMORY increase 0 MB VMC::resetRun
====================================================
  SimpleFixedNodeBranch::finalize after a VMC block
    QMC counter        = 7
    time step          = 1.5
    reference energy   = -2.24586
    reference variance = 0.00515469
====================================================
  Execution time = 5.9952e+00
</vmc>
<opt stage="setup">
  <log>
   Reading configurations from h5FileRoot optJ12.s007
  QMCCostFunction is created with 4 threads.
  Using Nonlocal PP in Opt: NonLocalECP
   Number of samples loaded to each thread : 2500 2500 2500 2500 
  VMC Eavg = -2.2455e+00
  VMC Evar = 1.7565e-01
  Total weights = 2.0000e+04
  Execution time = 4.2888e+00
  </log>
</opt>
<opt stage="main" walkers="20000">
  <log>

*****************************************
Building overlap and Hamiltonian matrices
*****************************************

Among totally 40 optimized parameters, largest LM parameter change : 5.4030e-02 at parameter 21

******************************************************************************
Init Cost =  -2.0034e+00    New Cost =  -2.0031e+00  Delta Cost =   3.0516e-04
******************************************************************************

The new set of parameters is valid. Updating the trial wave function!

*****************************************************************************
Applying the update for shift_i =   1.0000e-02     and shift_s =   6.2500e-02
*****************************************************************************
  Execution time = 1.8427e+01
  </log>
  <optVariables href="optJ12.s007.opt.xml">
eBe_0                -4.158473e-01 1 1  ON 0
eBe_1                -3.184506e-01 1 1  ON 1
eBe_2                -2.462983e-01 1 1  ON 2
eBe_3                -2.079709e-01 1 1  ON 3
eBe_4                -1.681308e-01 1 1  ON 4
eBe_5                -1.291130e-01 1 1  ON 5
eBe_6                -8.559974e-02 1 1  ON 6
eBe_7                -5.026617e-02 1 1  ON 7
eBe_8                -2.057005e-02 1 1  ON 8
eBe_9                -6.373800e-03 1 1  ON 9
 eH_0                -3.489226e-01 1 1  ON 10
 eH_1                -3.144258e-01 1 1  ON 11
 eH_2                -2.813446e-01 1 1  ON 12
 eH_3                -2.405935e-01 1 1  ON 13
 eH_4                -1.931741e-01 1 1  ON 14
 eH_5                -1.528837e-01 1 1  ON 15
 eH_6                -1.273606e-01 1 1  ON 16
 eH_7                -7.571425e-02 1 1  ON 17
 eH_8                -4.442978e-02 1 1  ON 18
 eH_9                -1.830511e-02 1 1  ON 19
 uu_0                 6.337615e-02 1 1  ON 20
 uu_1                 2.503769e-01 1 1  ON 21
 uu_2                 3.214197e-01 1 1  ON 22
 uu_3                 2.406384e-01 1 1  ON 23
 uu_4                 1.934486e-01 1 1  ON 24
 uu_5                 1.376591e-01 1 1  ON 25
 uu_6                 8.615288e-02 1 1  ON 26
 uu_7                 5.215547e-02 1 1  ON 27
 uu_8                 2.771497e-02 1 1  ON 28
 uu_9                 1.166789e-02 1 1  ON 29
 ud_0                 9.290287e-01 1 1  ON 30
 ud_1                 7.336194e-01 1 1  ON 31
 ud_2                 5.718905e-01 1 1  ON 32
 ud_3                 4.386756e-01 1 1  ON 33
 ud_4                 3.267976e-01 1 1  ON 34
 ud_5                 2.329169e-01 1 1  ON 35
 ud_6                 1.575018e-01 1 1  ON 36
 ud_7                 9.983674e-02 1 1  ON 37
 ud_8                 5.667016e-02 1 1  ON 38
 ud_9                 2.894564e-02 1 1  ON 39
  </optVariables>
   Restore the number of walkers to 4, removing 0 walkers.
</opt>
</optimization-report>
  QMC Execution time = 18.43 secs

=========================================================
  Start QMCFixedSampleLinearOptimize
  File Root optJ12.s008 append = no 
=========================================================
  Skip QMCDriver::putQMCInfo 
  Resetting Properties of the walkers 1 x 14

=========================================================
  Start VMC
  File Root optJ12.s008 append = no 
=========================================================
Using existing walkers 
  Resetting Properties of the walkers 1 x 14

<vmc function="put">
  qmc_counter=2  my_counter=0
  time step      = 1.5
  blocks         = 100
  steps          = 25
  substeps       = 2
  current        = 0
  target samples = 2e+04
  walkers/mpi    = 4

  stepsbetweensamples = 1
  SpinMoves      = no
<parameter name="blocks" condition="int">100</parameter>
<parameter name="blocks_between_recompute" condition="int">0</parameter>
<parameter name="check_properties" condition="int">100</parameter>
<parameter name="checkproperties" condition="int">100</parameter>
<parameter name="current" condition="int">0</parameter>
<parameter name="dmcwalkersperthread" condition="real">2500</parameter>
<parameter name="maxcpusecs" condition="real">3.6e+05</parameter>
<parameter name="record_configs" condition="int">0</parameter>
<parameter name="record_walkers" condition="int">1</parameter>
<parameter name="recordconfigs" condition="int">0</parameter>
<parameter name="recordwalkers" condition="int">1</parameter>
<parameter name="rewind" condition="int">0</parameter>
<parameter name="samples" condition="real">2e+04</parameter>
<parameter name="samplesperthread" condition="real">2500</parameter>
<parameter name="spinmass" condition="double">1</parameter>
<parameter name="spinmoves" condition="string">no</parameter>
<parameter name="steps" condition="int">25</parameter>
<parameter name="stepsbetweensamples" condition="int">1</parameter>
<parameter name="store_configs" condition="int">0</parameter>
<parameter name="storeconfigs" condition="int">0</parameter>
<parameter name="sub_steps" condition="int">2</parameter>
<parameter name="substeps" condition="int">2</parameter>
<parameter name="tau" condition="au">1.5</parameter>
<parameter name="time_step" condition="au">1.5</parameter>
<parameter name="timestep" condition="au">1.5</parameter>
<parameter name="use_drift" condition="string">yes</parameter>
<parameter name="usedrift" condition="string">yes</parameter>
<parameter name="walkers" condition="int">4</parameter>
<parameter name="warmup_steps" condition="int">0</parameter>
<parameter name="warmupsteps" condition="int">0</parameter>
  DumpConfig==false Nothing (configurations, state) will be saved.
  Walker Samples are dumped every 1 steps.
</vmc>
    Restarting, cummulative properties:
      energy     = -2.209
      variance   = 0
      r2accepted = 1e-10
      r2proposed = 1e-10
  Set drift_modifier UNR parameter a = 1
  Adding a default LocalEnergyEstimator for the MainEstimator 
 Using QMCCostFunction::QMCCostFunction
  Set drift_modifier UNR parameter a = 1.0000e+00
<optimization-report>
<vmc stage="main" blocks="100">
  Cannot make clones again. Use existing 4 clones
  Initial partition of walkers 0 1 2 3 4 

  Using Particle by Particle moves
  Walker moves with drift
  Total Sample Size   =20000
  Walker distribution on root = 0 1 2 3 4 
  Using Locality Approximation
===== Memory Usage after the buffer registration =====
Available memory on node 0, free + buffers : 259 MB
Memory footprint by rank 0 on node 0       : 66 MB
==================================================
  Anonymous Buffer size per walker : 17344 Bytes.
MEMORY increase 0 MB VMC::resetRun
====================================================
  SimpleFixedNodeBranch::finalize after a VMC block
    QMC counter        = 8
    time step          = 1.5
    reference energy   = -2.21625
    reference variance = 0.0265285
====================================================
  Execution time = 6.0115e+00
</vmc>
<opt stage="setup">
  <log>
   Reading configurations from h5FileRoot optJ12.s008
  QMCCostFunction is created with 4 threads.
  Using Nonlocal PP in Opt: NonLocalECP
   Number of samples loaded to each thread : 2500 2500 2500 2500 
  VMC Eavg = -2.2437e+00
  VMC Evar = 2.3311e-01
  Total weights = 2.0000e+04
  Execution time = 3.9936e+00
  </log>
</opt>
<opt stage="main" walkers="20000">
  <log>

*****************************************
Building overlap and Hamiltonian matrices
*****************************************

Among totally 40 optimized parameters, largest LM parameter change : 5.7604e-02 at parameter 0

******************************************************************************
Init Cost =  -1.9960e+00    New Cost =  -1.9971e+00  Delta Cost =  -1.1340e-03
******************************************************************************

The new set of parameters is valid. Updating the trial wave function!

*****************************************************************************
Applying the update for shift_i =   1.0000e-02     and shift_s =   1.5625e-02
*****************************************************************************
  Execution time = 1.7880e+01
  </log>
  <optVariables href="optJ12.s008.opt.xml">
eBe_0                -4.734518e-01 1 1  ON 0
eBe_1                -2.911339e-01 1 1  ON 1
eBe_2                -2.447842e-01 1 1  ON 2
eBe_3                -2.132499e-01 1 1  ON 3
eBe_4                -1.768993e-01 1 1  ON 4
eBe_5                -1.384884e-01 1 1  ON 5
eBe_6                -9.596411e-02 1 1  ON 6
eBe_7                -6.107426e-02 1 1  ON 7
eBe_8                -3.025876e-02 1 1  ON 8
eBe_9                -1.480979e-02 1 1  ON 9
 eH_0                -3.609587e-01 1 1  ON 10
 eH_1                -3.285827e-01 1 1  ON 11
 eH_2                -2.954606e-01 1 1  ON 12
 eH_3                -2.556418e-01 1 1  ON 13
 eH_4                -2.065491e-01 1 1  ON 14
 eH_5                -1.645562e-01 1 1  ON 15
 eH_6                -1.324350e-01 1 1  ON 16
 eH_7                -7.676788e-02 1 1  ON 17
 eH_8                -4.029547e-02 1 1  ON 18
 eH_9                -1.546597e-02 1 1  ON 19
 uu_0                 7.000816e-02 1 1  ON 20
 uu_1                 2.921316e-01 1 1  ON 21
 uu_2                 3.400537e-01 1 1  ON 22
 uu_3                 2.501692e-01 1 1  ON 23
 uu_4                 1.857709e-01 1 1  ON 24
 uu_5                 1.208112e-01 1 1  ON 25
 uu_6                 7.272478e-02 1 1  ON 26
 uu_7                 4.473530e-02 1 1  ON 27
 uu_8                 2.550161e-02 1 1  ON 28
 uu_9                 1.228724e-02 1 1  ON 29
 ud_0                 9.335267e-01 1 1  ON 30
 ud_1                 7.416996e-01 1 1  ON 31
 ud_2                 5.816326e-01 1 1  ON 32
 ud_3                 4.460580e-01 1 1  ON 33
 ud_4                 3.308127e-01 1 1  ON 34
 ud_5                 2.359714e-01 1 1  ON 35
 ud_6                 1.593797e-01 1 1  ON 36
 ud_7                 1.011805e-01 1 1  ON 37
 ud_8                 5.600435e-02 1 1  ON 38
 ud_9                 2.872151e-02 1 1  ON 39
  </optVariables>
   Restore the number of walkers to 4, removing 0 walkers.
</opt>
</optimization-report>
  QMC Execution time = 17.88 secs
  Total Execution time = 108.7 secs

=========================================================
  A new xml input file : optJ12.s008.cont.xml
