mkdir: cannot create directory ‘/global/cscratch1/sd/haihan/gamess_45036925’: File exists
----- GAMESS execution script 'rungms' -----
This job is running on host nid00013
under operating system Linux at Mon Aug 2 07:27:50 PDT 2021
Slurm has assigned the following compute nodes to this run:
nid00013
Available scratch disk space (Kbyte units) at beginning of the job is
Filesystem                                                 1K-blocks           Used     Available Use% Mounted on
10.100.104.4@o2ib4000:10.101.104.5@o2ib4001:/snx11168 29531080226208 21760281953268 7471780991400  75% /global/cscratch1
GAMESS temporary binary files will be written to /global/cscratch1/sd/haihan/gamess_45036925
GAMESS supplementary output files will be written to /global/cscratch1/sd/haihan/gamess_45036925
Copying input file NO_cisd_4.inp to your run's scratch directory...
cp NO_cisd_4.inp /global/cscratch1/sd/haihan/gamess_45036925/NO_cisd_4.F05
unset echo
setenv DDI_DS_PER_NODE 1
setenv OMP_NUM_THREADS 1
setenv OMP_PROC_BIND spread
setenv OMP_PLACES cores
chdir /global/cscratch1/sd/haihan/gamess_45036925/NO_cisd_4
sbcast --compress=lz4 /usr/common/software/gamess/30SEP2019R2/intel/19.0.3.199/hsw/bin/gamess.00.x /tmp/gamess
srun -n 16 -c 2 --cpu_bind=cores /tmp/gamess NO_cisd_4
          ******************************************************
          *         GAMESS VERSION = 30 SEP 2019 (R2)          *
          *             FROM IOWA STATE UNIVERSITY             *
          * M.W.SCHMIDT, K.K.BALDRIDGE, J.A.BOATZ, S.T.ELBERT, *
          *   M.S.GORDON, J.H.JENSEN, S.KOSEKI, N.MATSUNAGA,   *
          *          K.A.NGUYEN, S.J.SU, T.L.WINDUS,           *
          *       TOGETHER WITH M.DUPUIS, J.A.MONTGOMERY       *
          *         J.COMPUT.CHEM.  14, 1347-1363(1993)        *
          **************** 64 BIT LINUX VERSION ****************

  SINCE 1993, STUDENTS AND POSTDOCS WORKING AT IOWA STATE UNIVERSITY
  AND ALSO IN THEIR VARIOUS JOBS AFTER LEAVING ISU HAVE MADE IMPORTANT
  CONTRIBUTIONS TO THE CODE:
     IVANA ADAMOVIC, CHRISTINE AIKENS, YURI ALEXEEV, POOJA ARORA,
     ANDREY ASADCHEV, ROB BELL, PRADIPTA BANDYOPADHYAY, JONATHAN BENTZ,
     COLLEEN BERTONI, BRETT BODE, KURT BRORSEN, CALEB CARLIN, GALINA CHABAN,
     WEI CHEN, CHEOL HO CHOI, PAUL DAY, ALBERT DEFUSCO, NUWAN DESILVA,
     TIM DUDLEY, DMITRI FEDOROV, ALEX FINDLATER, GRAHAM FLETCHER, 
     MARK FREITAG, KURT GLAESEMANN, EMILIE B GUIDEZ, ANASTASIA GUNINA, 
     DAN KEMP, SAROM SOK LEANG, GRANT MERRILL,
     NORIYUKI MINEZAWA, JONATHAN MULLIN,
     TAKESHI NAGATA, SEAN NEDD, HEATHER NETZLOFF, BOSILJKA NJEGIC, RYAN OLSON,
     MIKE PAK, BUU PHAM, DAVID POOLE,
     SPENCER PRUITT, LUKE ROSKOP, TOSAPORN SATTASATHUCHANA,
     JIM SHOEMAKER, LYUDMILA SLIPCHENKO,
     TONY SMITH, JIE SONG, TETSUYA TAKETSUGU, SIMON WEBB,
     JORGE LUIS GALVEZ VALLEJO, PENG XU, SOOHAENG YOO,
     FEDERICO ZAHARIEV

  ADDITIONAL CODE HAS BEEN PROVIDED BY COLLABORATORS IN OTHER GROUPS:
     IOWA STATE UNIVERSITY:
          JOE IVANIC, AARON WEST, LAIMUTIS BYTAUTAS, KLAUS RUEDENBERG
     UNIVERSITY OF TOKYO: KIMIHIKO HIRAO, TAKAHITO NAKAJIMA,
          TAKAO TSUNEDA, MUNEAKI KAMIYA, SUSUMU YANAGISAWA,
          KIYOSHI YAGI, MAHITO CHIBA, SEIKEN TOKURA, NAOAKI KAWAKAMI
     UNIVERSITY OF AARHUS: FRANK JENSEN
     UNIVERSITY OF IOWA: VISVALDAS KAIRYS, HUI LI
     NATIONAL INST. OF STANDARDS AND TECHNOLOGY: WALT STEVENS, DAVID GARMER
     UNIVERSITY OF PISA: BENEDETTA MENNUCCI, JACOPO TOMASI
     UNIVERSITY OF MEMPHIS: HENRY KURTZ, PRAKASHAN KORAMBATH
     UNIVERSITY OF ALBERTA: TOBY ZENG, MARIUSZ KLOBUKOWSKI
     UNIVERSITY OF NEW ENGLAND: MARK SPACKMAN
     MIE UNIVERSITY: HIROAKI UMEDA
     NAT. INST. OF ADVANCED INDUSTRIAL SCIENCE AND TECHNOLOGY: KAZUO KITAURA
     MICHIGAN STATE UNIVERSITY:
          KAROL KOWALSKI, MARTA WLOCH, JEFFREY GOUR, JESSE LUTZ,
          WEI LI, JUN SHEN, J. EMILIANO DEUSTUA, PIOTR PIECUCH
     UNIVERSITY OF MINNESOTA:
          ANDREW SAND, PRACHI SHARMA, YINAN SHU
     UNIVERSITY OF SILESIA: MONIKA MUSIAL, STANISLAW KUCHARSKI
     FACULTES UNIVERSITAIRES NOTRE-DAME DE LA PAIX:
          OLIVIER QUINET, BENOIT CHAMPAGNE
     UNIVERSITY OF CALIFORNIA - SANTA BARBARA: BERNARD KIRTMAN
     INSTITUTE FOR MOLECULAR SCIENCE:
          KAZUYA ISHIMURA, MICHIO KATOUDA, AND SHIGERU NAGASE
     UNIVERSITY OF NOTRE DAME: ANNA POMOGAEVA, DAN CHIPMAN
     KYUSHU UNIVERSITY:
          HARUYUKI NAKANO,
          FENG LONG GU, JACEK KORCHOWIEC, MARCIN MAKOWSKI, AND YURIKO AOKI,
          HIROTOSHI MORI AND EISAKU MIYOSHI
     PENNSYLVANIA STATE UNIVERSITY:
          TZVETELIN IORDANOV, CHET SWALINA, JONATHAN SKONE,
          SHARON HAMMES-SCHIFFER
     WASEDA UNIVERSITY:
          MASATO KOBAYASHI, TOMOKO AKAMA, TSUGUKI TOUMA,
          TAKESHI YOSHIKAWA, YASUHIRO IKABATA, JUNJI SEINO,
          YUYA NAKAJIMA, HIROMI NAKAI
     NANJING UNIVERSITY: SHUHUA LI
     UNIVERSITY OF NEBRASKA:
          PEIFENG SU, DEJUN SI, NANDUN THELLAMUREGE, YALI WANG, HUI LI
     UNIVERSITY OF ZURICH: ROBERTO PEVERATI, KIM BALDRIDGE
     N. COPERNICUS UNIVERSITY AND JACKSON STATE UNIVERSITY:
          MARIA BARYSZ
     UNIVERSITY OF COPENHAGEN: Jimmy Kromann, CASPER STEINMANN
     TOKYO INSTITUTE OF TECHNOLOGY: HIROYA NAKATA
     NAGOYA UNIVERSITY: YOSHIO NISHIMOTO, STEPHAN IRLE
     MOSCOW STATE UNIVERSITY: VLADIMIR MIRONOV
     A.N.NESMEYANOV INSTITUTE OF ORGANOELEMENT COMPOUNDS OF RUSSIAN ACADEMY OF SCIENCES:
          IGOR S. GERASIMOV
     JOHANNES KEPLER UNIVERSITY LINZ:
          CHRISTIAN FRIEDL


 PARALLEL VERSION RUNNING ON        8 PROCESSORS IN        1 NODES.

 EXECUTION OF GAMESS BEGUN Mon Aug  2 07:27:56 2021

            ECHO OF THE FIRST FEW INPUT CARDS -
 INPUT CARD> $CONTRL                                                                        
 INPUT CARD>     SCFTYP=NONE                                                                
 INPUT CARD>     MULT=1                                                                     
 INPUT CARD>     CITYP=GUGA                                                                 
 INPUT CARD>     ICHARG=0                                                                   
 INPUT CARD>     EXETYP=RUN                                                                 
 INPUT CARD>     RUNTYP=ENERGY                                                              
 INPUT CARD>     MAXIT=200                                                                  
 INPUT CARD>     PP=READ                                                                    
 INPUT CARD>     ISPHER=1                                                                   
 INPUT CARD>     UNITS=ANGS                                                                 
 INPUT CARD> $END                                                                           
 INPUT CARD>                                                                                
 INPUT CARD> $SYSTEM                                                                        
 INPUT CARD>    MWORDS=1000                                                                 
 INPUT CARD>    MEMDDI=1000                                                                 
 INPUT CARD> $END                                                                           
 INPUT CARD>                                                                                
 INPUT CARD> $GUESS                                                                         
 INPUT CARD>     GUESS=MOREAD                                                               
 INPUT CARD>     NORDER=1                                                                   
 INPUT CARD>     NORB=18                                                                    
 INPUT CARD>     PRTMO=.T.                                                                  
 INPUT CARD>                                                                                
 INPUT CARD> $END                                                                           
 INPUT CARD>                                                                                
 INPUT CARD> $SCF DIRSCF=.TRUE. $END                                                        
 INPUT CARD>                                                                                
 INPUT CARD>! $MCSCF                                                                        
 INPUT CARD>!      CISTEP=GUGA                                                              
 INPUT CARD>! $END                                                                          
 INPUT CARD>                                                                                
 INPUT CARD> $CIDRT                                                                         
 INPUT CARD>      NPRT=2                                                                    
 INPUT CARD>      NFZC=0                                                                    
 INPUT CARD>      NDOC=2                                                                    
 INPUT CARD> !     NAOS=1                                                                   
 INPUT CARD> !     NBOS=1                                                                   
 INPUT CARD>      NVAL=16                                                                   
 INPUT CARD>      IEXCIT=2                                                                  
 INPUT CARD>      GROUP=C1                                                                  
 INPUT CARD>      MXNINT=500000                                                             
 INPUT CARD> $END                                                                           
 INPUT CARD>                                                                                
 INPUT CARD> $GUGDIA NSTATE=1 $END                                                          
 INPUT CARD>                                                                                
 INPUT CARD> $GUGDIA PRTTOL=1.0E-6 $END                                                     
 INPUT CARD>                                                                                
 INPUT CARD> $GUGDM NFLGDM(1)=1 $END                                                        
 INPUT CARD>                                                                                
 1000000000 WORDS OF MEMORY AVAILABLE


     RUN TITLE
     ---------
 BeH2 calculation                                                                

 THE POINT GROUP OF THE MOLECULE IS C1      
 THE ORDER OF THE PRINCIPAL AXIS IS     0

 ATOM      ATOMIC                      COORDINATES (BOHR)
           CHARGE         X                   Y                   Z
 BE          4.0     0.0000000000        0.0000000000        0.0000000000
 H           1.0     0.0000000000        0.0000000000        2.5065325501
 H           1.0     0.0000000000        0.0000000000       -2.5065325501

          INTERNUCLEAR DISTANCES (ANGS.)
          ------------------------------

                1 BE         2 H          3 H     

   1 BE      0.0000000    1.3264000 *  1.3264000 *
   2 H       1.3264000 *  0.0000000    2.6528000 *
   3 H       1.3264000 *  2.6528000 *  0.0000000  

  * ... LESS THAN  3.000


     ATOMIC BASIS SET
     ----------------
 THE CONTRACTED PRIMITIVE FUNCTIONS HAVE BEEN UNNORMALIZED
 THE CONTRACTED BASIS FUNCTIONS ARE NOW NORMALIZED TO UNITY

  SHELL TYPE  PRIMITIVE        EXPONENT          CONTRACTION COEFFICIENT(S)

 BE        

      1   S       1            15.9658770    0.000689999755
      1   S       2             7.3673610   -0.000376999866
      1   S       3             3.3996260    0.024068991438
      1   S       4             1.5687380   -0.111988960163
      1   S       5             0.7238850   -0.076441972808
      1   S       6             0.3340320    0.135743951713
      1   S       7             0.1541370    0.418514851126
      1   S       8             0.0711260    0.462923835329
      1   S       9             0.0328210    0.128265954373

      2   P      10            16.5549420    0.000340999822
      2   P      11             7.5260500    0.003227998312
      2   P      12             3.4214210    0.017659990768
      2   P      13             1.5554140    0.038663979788
      2   P      14             0.7071080    0.098638948434
      2   P      15             0.3214580    0.231258879104
      2   P      16             0.1461380    0.387108797630
      2   P      17             0.0664360    0.339447822546
      2   P      18             0.0302030    0.089101953420

      3   S      19             0.3451840    1.000000000000

      4   S      20             0.0536140    1.000000000000

      5   S      21             0.0214460    1.000000000000

      6   P      22             1.3520430    1.000000000000

      7   P      23             0.2258420    1.000000000000

      8   P      24             0.0903370    1.000000000000

      9   D      25             0.3826920    1.000000000000

     10   D      26             0.1763990    1.000000000000

     11   D      27             0.0705600    1.000000000000

     12   F      28             0.3234520    1.000000000000

     13   F      29             0.1293810    1.000000000000

 H         

     14   S      30            23.8431850    0.004114899701
     14   S      31            10.2124430    0.010464399240
     14   S      32             4.3741640    0.028011097966
     14   S      33             1.8735290    0.075886194491
     14   S      34             0.8024650    0.182106186780
     14   S      35             0.3437090    0.348521374698
     14   S      36             0.1472170    0.378231272542
     14   S      37             0.0630550    0.116424091548

     15   S      38             0.0292920    1.000000000000

     16   S      39             0.0917910    1.000000000000

     17   S      40             0.2876370    1.000000000000

     18   P      41             0.1061050    1.000000000000

     19   P      42             0.3939540    1.000000000000

     20   P      43             1.4626940    1.000000000000

     21   D      44             0.2958830    1.000000000000

     22   D      45             1.0658410    1.000000000000

 H         

     23   S      46            23.8431850    0.004114899701
     23   S      47            10.2124430    0.010464399240
     23   S      48             4.3741640    0.028011097966
     23   S      49             1.8735290    0.075886194491
     23   S      50             0.8024650    0.182106186780
     23   S      51             0.3437090    0.348521374698
     23   S      52             0.1472170    0.378231272542
     23   S      53             0.0630550    0.116424091548

     24   S      54             0.0292920    1.000000000000

     25   S      55             0.0917910    1.000000000000

     26   S      56             0.2876370    1.000000000000

     27   P      57             0.1061050    1.000000000000

     28   P      58             0.3939540    1.000000000000

     29   P      59             1.4626940    1.000000000000

     30   D      60             0.2958830    1.000000000000

     31   D      61             1.0658410    1.000000000000

 TOTAL NUMBER OF BASIS SET SHELLS             =   31
 NUMBER OF CARTESIAN GAUSSIAN BASIS FUNCTIONS =  104
 NOTE: THIS RUN WILL RESTRICT THE MO VARIATION SPACE TO SPHERICAL HARMONICS.
 THE NUMBER OF ORBITALS KEPT IN THE VARIATIONAL SPACE WILL BE PRINTED LATER.
 NUMBER OF ELECTRONS                          =    6
 CHARGE OF MOLECULE                           =    0
 SPIN MULTIPLICITY                            =    1
 NUMBER OF OCCUPIED ORBITALS (ALPHA)          =    3
 NUMBER OF OCCUPIED ORBITALS (BETA )          =    3
 TOTAL NUMBER OF ATOMS                        =    3
 THE NUCLEAR REPULSION ENERGY IS        3.3911388861
 NOTE THIS RUN IS USING CORE POTENTIALS, AND THE NUMBER OF ELECTRONS,
 OCCUPIED ORBITALS, AND NUCLEAR REPULSION ENERGY WILL BE ADJUSTED BELOW
 AFTER REMOVAL OF THE CORE CHARGES.

 THIS MOLECULE IS RECOGNIZED AS BEING LINEAR,
 ORBITAL LZ DEGENERACY TOLERANCE ETOLLZ= 1.00E-06

     $CONTRL OPTIONS
     ---------------
 SCFTYP=NONE         RUNTYP=ENERGY       EXETYP=RUN     
 MPLEVL=       0     CITYP =GUGA         CCTYP =NONE         VBTYP =NONE    
 DFTTYP=NONE         TDDFT =NONE    
 MULT  =       1     ICHARG=       0     NZVAR =       0     COORD =UNIQUE  
 PP    =READ         RELWFN=NONE         LOCAL =NONE         NUMGRD=       F
 ISPHER=       1     NOSYM =       0     MAXIT =     200     UNITS =ANGS    
 PLTORB=       F     MOLPLT=       F     AIMPAC=       F     FRIEND=        
 NPRINT=       7     IREST =       0     GEOM  =INPUT   
 NORMF =       0     NORMP =       0     ITOL  =      20     ICUT  =       9
 INTTYP=BEST         GRDTYP=BEST         QMTTOL= 1.0E-06

     $SYSTEM OPTIONS
     ---------------
  REPLICATED MEMORY=  1000000000 WORDS (ON EVERY NODE).
 DISTRIBUTED MEMDDI=        1000 MILLION WORDS IN AGGREGATE,
 MEMDDI DISTRIBUTED OVER   8 PROCESSORS IS   125000000 WORDS/PROCESSOR.
 TOTAL MEMORY REQUESTED ON EACH PROCESSOR=  1125000000 WORDS.
 TIMLIM=      525600.00 MINUTES, OR     365.0 DAYS.
 PARALL= T  BALTYP=  DLB     KDIAG=    0  COREFL= F
 MXSEQ2=     300 MXSEQ3=     150  mem10=         0

          --------------
          ECP POTENTIALS
          --------------

 PARAMETERS FOR "BE-CCECP" ON ATOM    1 WITH ZCORE   2 AND LMAX  1 ARE
 FOR L= 1      COEFF    N           ZETA
    1        2.00000    1       17.94900
    2       35.89800    3       24.13200
    3      -12.77500    2       20.13800
    4       -2.96001    2        4.33317
 FOR L= 0      COEFF    N           ZETA
    1       12.66392    2        2.48740

 PARAMETERS FOR "H-CCECP " ON ATOM    2 WITH ZCORE   0 AND LMAX  1 ARE
 FOR L= 1      COEFF    N           ZETA
    1        1.00000    1       21.24360
    2       21.24360    3       21.24360
    3      -10.85192    2       21.77697
 FOR L= 0      COEFF    N           ZETA
    1        0.00000    2        1.00000

 PARAMETERS FOR "H-CCECP " ON ATOM    3 ARE THE SAME AS ATOM   2

 THE ECP RUN REMOVES    2 CORE ELECTRONS, AND THE SAME NUMBER OF PROTONS.
 NUMBER OF ELECTRONS KEPT IN THE CALCULATION IS =    4
 NUMBER OF OCCUPIED ORBITALS (ALPHA) KEPT IS    =    2
 NUMBER OF OCCUPIED ORBITALS (BETA ) KEPT IS    =    2
 THE ADJUSTED NUCLEAR REPULSION ENERGY=        1.7953088221
          ECP ANGULAR INTS.........     0.01 SECONDS

          ----------------
          PROPERTIES INPUT
          ----------------

     MOMENTS            FIELD           POTENTIAL          DENSITY
 IEMOM =       1   IEFLD =       0   IEPOT =       0   IEDEN =       0
 WHERE =COMASS     WHERE =NUCLEI     WHERE =NUCLEI     WHERE =NUCLEI  
 OUTPUT=BOTH       OUTPUT=BOTH       OUTPUT=BOTH       OUTPUT=BOTH    
 IEMINT=       0   IEFINT=       0                     IEDINT=       0
                                                       MORB  =       0
          EXTRAPOLATION IN EFFECT
          SOSCF IN EFFECT
 ORBITAL PRINTING OPTION: NPREO=     1   104     2     1

     -------------------------------
     INTEGRAL TRANSFORMATION OPTIONS
     -------------------------------
     NWORD  =            0
     CUTOFF = 1.0E-09     MPTRAN =       0
     DIRTRF =       T     AOINTS =DUP     

          ----------------------
          INTEGRAL INPUT OPTIONS
          ----------------------
 NOPK  =       1 NORDER=       0 SCHWRZ=       T

     ------------------------------------------
     THE POINT GROUP IS C1 , NAXIS= 0, ORDER= 1
     ------------------------------------------

 -- VARIATIONAL SPACE WILL BE RESTRICTED TO PURE SPHERICAL HARMONICS ONLY --
 AFTER EXCLUDING CONTAMINANT COMBINATIONS FROM THE CARTESIAN GAUSSIAN BASIS
 SET, THE NUMBER OF SPHERICAL HARMONICS KEPT IN THE VARIATION SPACE IS   91

     DIMENSIONS OF THE SYMMETRY SUBSPACES ARE
 A   =   91

 ..... DONE SETTING UP THE RUN .....
 CPU     0: STEP CPU TIME=     0.21 TOTAL CPU TIME=          0.2 (      0.0 MIN)
 TOTAL WALL CLOCK TIME=          1.8 SECONDS, CPU UTILIZATION IS    11.80%

          ********************
          1 ELECTRON INTEGRALS
          ********************
 TIME TO DO ORDINARY INTEGRALS=      0.05
 TIME TO DO      ECP INTEGRALS=      0.01
 ...... END OF ONE-ELECTRON INTEGRALS ......
 CPU     0: STEP CPU TIME=     0.07 TOTAL CPU TIME=          0.3 (      0.0 MIN)
 TOTAL WALL CLOCK TIME=          2.4 SECONDS, CPU UTILIZATION IS    11.52%

          -------------
          GUESS OPTIONS
          -------------
          GUESS =MOREAD            NORB  =      18          NORDER=       1
          MIX   =       F          PRTMO =       T          PUNMO =       F
          TOLZ  = 1.0E-08          TOLE  = 1.0E-05
          SYMDEN=       F          PURIFY=       F

 INITIAL GUESS ORBITALS GENERATED BY MOREAD   ROUTINE.

 STATISTICS FOR GENERATION OF SYMMETRY ORBITAL -Q- MATRIX
 NUMBER OF CARTESIAN ATOMIC ORBITALS=        104
 NUMBER OF SPHERICAL CONTAMINANTS DROPPED=    13
 NUMBER OF LINEARLY DEPENDENT MOS DROPPED=     0
 TOTAL NUMBER OF MOS IN VARIATION SPACE=      91
 EIGENVALUES ARE DIAGONAL OF 1E- H IN MO BASIS

 SYMMETRIES FOR INITIAL GUESS ORBITALS FOLLOW.   BOTH SET(S).
     2 ORBITALS ARE OCCUPIED (    0 CORE ORBITALS).
     1=A        2=A        3=A        4=A        5=A        6=A        7=A   
     8=A        9=A       10=A       11=A       12=A       13=A       14=A   
    15=A       16=A       17=A       18=A       19=A       20=A       21=A   
    22=A       23=A       24=A       25=A       26=A       27=A       28=A   
    29=A       30=A       31=A       32=A       33=A       34=A       35=A   
    36=A       37=A       38=A       39=A       40=A       41=A       42=A   
    43=A       44=A       45=A       46=A       47=A       48=A       49=A   
    50=A       51=A       52=A       53=A       54=A       55=A       56=A   
    57=A       58=A       59=A       60=A       61=A       62=A       63=A   
    64=A       65=A       66=A       67=A       68=A       69=A       70=A   
    71=A       72=A       73=A       74=A       75=A       76=A       77=A   
    78=A       79=A       80=A       81=A       82=A       83=A       84=A   
    85=A       86=A       87=A       88=A       89=A       90=A       91=A   

                              ----------------------
                              INITIAL GUESS ORBITALS
                              ----------------------

                      1          2          3          4          5
                   -1.5039    -1.5125    -1.0209    -0.8120    -0.7651
                     A          A          A          A          A   
    1  BE 1  S    0.000000   0.836384   1.022651   0.000000  -1.558521
    2  BE 1  X    0.000000   0.000000   0.000000   0.000000   0.000000
    3  BE 1  Y    0.000000   0.000000   0.000000   0.000000   0.000000
    4  BE 1  Z    0.571473   0.000000   0.000000   1.750147  -0.000004
    5  BE 1  S    0.000000  -0.000756   0.110594   0.000000  -0.472521
    6  BE 1  S   -0.000000  -0.127423  -0.710870  -0.000000  -0.129811
    7  BE 1  S    0.000000  -0.014761  -0.233044  -0.000000  -0.586191
    8  BE 1  X    0.000000   0.000000   0.000000   0.000000   0.000000
    9  BE 1  Y    0.000000   0.000000   0.000000   0.000000   0.000000
   10  BE 1  Z    0.018395  -0.000000   0.000000   0.050615   0.000000
   11  BE 1  X    0.000000   0.000000   0.000000   0.000000   0.000000
   12  BE 1  Y    0.000000   0.000000   0.000000   0.000000   0.000000
   13  BE 1  Z    0.151970  -0.000000  -0.000000   1.383606   0.000001
   14  BE 1  X    0.000000   0.000000   0.000000   0.000000   0.000000
   15  BE 1  Y    0.000000   0.000000   0.000000   0.000000   0.000000
   16  BE 1  Z    0.135346  -0.000000  -0.000000  -1.281276  -0.000010
   17  BE 1 XX    0.000000  -0.023305   0.080439   0.000000   0.033659
   18  BE 1 YY    0.000000  -0.023305   0.080439   0.000000   0.033659
   19  BE 1 ZZ    0.000000   0.046610  -0.160878  -0.000000  -0.067319
   20  BE 1 XY    0.000000   0.000000   0.000000   0.000000   0.000000
   21  BE 1 XZ    0.000000   0.000000   0.000000   0.000000   0.000000
   22  BE 1 YZ    0.000000   0.000000   0.000000   0.000000   0.000000
   23  BE 1 XX    0.000000  -0.017409   0.054335   0.000000   0.041037
   24  BE 1 YY    0.000000  -0.017409   0.054335   0.000000   0.041037
   25  BE 1 ZZ   -0.000000   0.034818  -0.108671  -0.000000  -0.082074
   26  BE 1 XY    0.000000   0.000000   0.000000   0.000000   0.000000
   27  BE 1 XZ    0.000000   0.000000   0.000000   0.000000   0.000000
   28  BE 1 YZ    0.000000   0.000000   0.000000   0.000000   0.000000
   29  BE 1 XX    0.000000  -0.018425   0.008571  -0.000000   0.139165
   30  BE 1 YY    0.000000  -0.018425   0.008571  -0.000000   0.139165
   31  BE 1 ZZ   -0.000000   0.036849  -0.017142   0.000000  -0.278330
   32  BE 1 XY    0.000000   0.000000   0.000000   0.000000   0.000000
   33  BE 1 XZ    0.000000   0.000000   0.000000   0.000000   0.000000
   34  BE 1 YZ    0.000000   0.000000   0.000000   0.000000   0.000000
   35  BE 1 XXX   0.000000   0.000000   0.000000   0.000000   0.000000
   36  BE 1 YYY   0.000000   0.000000   0.000000   0.000000   0.000000
   37  BE 1 ZZZ   0.031824  -0.000000   0.000000   0.199656  -0.000000
   38  BE 1 XXY   0.000000   0.000000   0.000000   0.000000   0.000000
   39  BE 1 XXZ  -0.021348   0.000000  -0.000000  -0.133933   0.000000
   40  BE 1 YYX   0.000000   0.000000   0.000000   0.000000   0.000000
   41  BE 1 YYZ  -0.021348   0.000000  -0.000000  -0.133933   0.000000
   42  BE 1 ZZX   0.000000   0.000000   0.000000   0.000000   0.000000
   43  BE 1 ZZY   0.000000   0.000000   0.000000   0.000000   0.000000
   44  BE 1 XYZ   0.000000   0.000000   0.000000   0.000000   0.000000
   45  BE 1 XXX   0.000000   0.000000   0.000000   0.000000   0.000000
   46  BE 1 YYY   0.000000   0.000000   0.000000   0.000000   0.000000
   47  BE 1 ZZZ   0.024613  -0.000000   0.000000  -0.066275  -0.000001
   48  BE 1 XXY   0.000000   0.000000   0.000000   0.000000   0.000000
   49  BE 1 XXZ  -0.016511   0.000000  -0.000000   0.044458   0.000001
   50  BE 1 YYX   0.000000   0.000000   0.000000   0.000000   0.000000
   51  BE 1 YYZ  -0.016511   0.000000  -0.000000   0.044458   0.000001
   52  BE 1 ZZX   0.000000   0.000000   0.000000   0.000000   0.000000
   53  BE 1 ZZY   0.000000   0.000000   0.000000   0.000000   0.000000
   54  BE 1 XYZ   0.000000   0.000000   0.000000   0.000000   0.000000
   55  H  2  S    0.562661   0.483284  -0.831440  -0.653466  -0.239343
   56  H  2  S   -0.058042  -0.015574   0.234842  -0.321647   0.287057
   57  H  2  S   -0.345593  -0.147748   0.482689   0.502517   1.670753
   58  H  2  S   -0.162252  -0.084393  -0.015885  -1.014205  -0.121255
   59  H  2  X    0.000000   0.000000   0.000000   0.000000   0.000000
   60  H  2  Y    0.000000   0.000000   0.000000   0.000000   0.000000
   61  H  2  Z    0.068929   0.020404  -0.042080   0.037359  -0.092762
   62  H  2  X    0.000000   0.000000   0.000000   0.000000   0.000000
   63  H  2  Y    0.000000   0.000000   0.000000   0.000000   0.000000
   64  H  2  Z    0.022027   0.004465  -0.026828   0.221345   0.166646
   65  H  2  X    0.000000   0.000000   0.000000   0.000000   0.000000
   66  H  2  Y    0.000000   0.000000   0.000000   0.000000   0.000000
   67  H  2  Z   -0.007441  -0.005683   0.006273  -0.028351   0.017416
   68  H  2 XX    0.002681   0.001835  -0.007786   0.016612   0.008352
   69  H  2 YY    0.002681   0.001835  -0.007786   0.016612   0.008352
   70  H  2 ZZ   -0.005361  -0.003669   0.015572  -0.033224  -0.016703
   71  H  2 XY    0.000000   0.000000   0.000000   0.000000   0.000000
   72  H  2 XZ    0.000000   0.000000   0.000000   0.000000   0.000000
   73  H  2 YZ    0.000000   0.000000   0.000000   0.000000   0.000000
   74  H  2 XX   -0.000983  -0.000766   0.000684  -0.000751   0.007255
   75  H  2 YY   -0.000983  -0.000766   0.000684  -0.000751   0.007255
   76  H  2 ZZ    0.001966   0.001531  -0.001367   0.001503  -0.014511
   77  H  2 XY    0.000000   0.000000   0.000000   0.000000   0.000000
   78  H  2 XZ    0.000000   0.000000   0.000000   0.000000   0.000000
   79  H  2 YZ    0.000000   0.000000   0.000000   0.000000   0.000000
   80  H  3  S   -0.562661   0.483284  -0.831440   0.653466  -0.239336
   81  H  3  S    0.058042  -0.015574   0.234842   0.321647   0.287057
   82  H  3  S    0.345593  -0.147748   0.482689  -0.502517   1.670718
   83  H  3  S    0.162252  -0.084393  -0.015885   1.014205  -0.121256
   84  H  3  X    0.000000   0.000000   0.000000   0.000000   0.000000
   85  H  3  Y    0.000000   0.000000   0.000000   0.000000   0.000000
   86  H  3  Z    0.068929  -0.020404   0.042080   0.037359   0.092758
   87  H  3  X    0.000000   0.000000   0.000000   0.000000   0.000000
   88  H  3  Y    0.000000   0.000000   0.000000   0.000000   0.000000
   89  H  3  Z    0.022027  -0.004465   0.026828   0.221345  -0.166646
   90  H  3  X    0.000000   0.000000   0.000000   0.000000   0.000000
   91  H  3  Y    0.000000   0.000000   0.000000   0.000000   0.000000
   92  H  3  Z   -0.007441   0.005683  -0.006273  -0.028351  -0.017416
   93  H  3 XX   -0.002681   0.001835  -0.007786  -0.016612   0.008352
   94  H  3 YY   -0.002681   0.001835  -0.007786  -0.016612   0.008352
   95  H  3 ZZ    0.005361  -0.003669   0.015572   0.033224  -0.016703
   96  H  3 XY    0.000000   0.000000   0.000000   0.000000   0.000000
   97  H  3 XZ    0.000000   0.000000   0.000000   0.000000   0.000000
   98  H  3 YZ    0.000000   0.000000   0.000000   0.000000   0.000000
   99  H  3 XX    0.000983  -0.000766   0.000684   0.000751   0.007255
  100  H  3 YY    0.000983  -0.000766   0.000684   0.000751   0.007255
  101  H  3 ZZ   -0.001966   0.001531  -0.001367  -0.001503  -0.014511
  102  H  3 XY    0.000000   0.000000   0.000000   0.000000   0.000000
  103  H  3 XZ    0.000000   0.000000   0.000000   0.000000   0.000000
  104  H  3 YZ    0.000000   0.000000   0.000000   0.000000   0.000000

                      6          7          8          9         10
                   -0.6658    -1.1409    -1.1409    -0.5552    -0.5552
                     A          A          A          A          A   
    1  BE 1  S   -0.000001   0.000000   0.000000   0.000000   0.000000
    2  BE 1  X    0.000000  -0.180166  -0.238402  -1.702361   2.051600
    3  BE 1  Y    0.000000  -0.238402   0.180166   2.051600   1.702361
    4  BE 1  Z    0.709600   0.000000   0.000000   0.000000   0.000000
    5  BE 1  S   -0.000004   0.000000   0.000000   0.000000   0.000000
    6  BE 1  S   -0.000005   0.000000   0.000000   0.000000   0.000000
    7  BE 1  S   -0.000006   0.000000   0.000000   0.000000   0.000000
    8  BE 1  X    0.000000   0.117619   0.155638   0.131860  -0.158911
    9  BE 1  Y    0.000000   0.155638  -0.117619  -0.158911  -0.131860
   10  BE 1  Z   -0.030780   0.000000   0.000000   0.000000   0.000000
   11  BE 1  X    0.000000   0.520171   0.688309   0.667489  -0.804424
   12  BE 1  Y    0.000000   0.688309  -0.520171  -0.804424  -0.667489
   13  BE 1  Z   -0.402904   0.000000   0.000000   0.000000   0.000000
   14  BE 1  X    0.000000   0.214756   0.284173   0.265175  -0.319575
   15  BE 1  Y    0.000000   0.284173  -0.214756  -0.319575  -0.265175
   16  BE 1  Z    2.629184   0.000000   0.000000   0.000000   0.000000
   17  BE 1 XX    0.000000   0.000000   0.000000   0.000000   0.000000
   18  BE 1 YY    0.000000   0.000000   0.000000   0.000000   0.000000
   19  BE 1 ZZ   -0.000001   0.000000   0.000000   0.000000   0.000000
   20  BE 1 XY    0.000000   0.000000   0.000000   0.000000   0.000000
   21  BE 1 XZ    0.000000   0.000000   0.000000   0.000000   0.000000
   22  BE 1 YZ    0.000000   0.000000   0.000000   0.000000   0.000000
   23  BE 1 XX    0.000000   0.000000   0.000000   0.000000   0.000000
   24  BE 1 YY    0.000000   0.000000   0.000000   0.000000   0.000000
   25  BE 1 ZZ   -0.000001   0.000000   0.000000   0.000000   0.000000
   26  BE 1 XY    0.000000   0.000000   0.000000   0.000000   0.000000
   27  BE 1 XZ    0.000000   0.000000   0.000000   0.000000   0.000000
   28  BE 1 YZ    0.000000   0.000000   0.000000   0.000000   0.000000
   29  BE 1 XX    0.000001   0.000000   0.000000   0.000000   0.000000
   30  BE 1 YY    0.000001   0.000000   0.000000   0.000000   0.000000
   31  BE 1 ZZ   -0.000002   0.000000   0.000000   0.000000   0.000000
   32  BE 1 XY    0.000000   0.000000   0.000000   0.000000   0.000000
   33  BE 1 XZ    0.000000   0.000000   0.000000   0.000000   0.000000
   34  BE 1 YZ    0.000000   0.000000   0.000000   0.000000   0.000000
   35  BE 1 XXX   0.000000  -0.045700  -0.060472  -0.046558   0.056109
   36  BE 1 YYY   0.000000  -0.060472   0.045700   0.056109   0.046558
   37  BE 1 ZZZ   0.083016   0.000000   0.000000   0.000000   0.000000
   38  BE 1 XXY   0.000000  -0.027044   0.020438   0.025093   0.020821
   39  BE 1 XXZ  -0.055689   0.000000   0.000000   0.000000   0.000000
   40  BE 1 YYX   0.000000  -0.020438  -0.027044  -0.020821   0.025093
   41  BE 1 YYZ  -0.055689   0.000000   0.000000   0.000000   0.000000
   42  BE 1 ZZX   0.000000   0.081751   0.108176   0.083285  -0.100371
   43  BE 1 ZZY   0.000000   0.108176  -0.081751  -0.100371  -0.083285
   44  BE 1 XYZ   0.000000   0.000000   0.000000   0.000000   0.000000
   45  BE 1 XXX   0.000000  -0.044912  -0.059429  -0.116393   0.140271
   46  BE 1 YYY   0.000000  -0.059429   0.044912   0.140271   0.116393
   47  BE 1 ZZZ   0.293639   0.000000   0.000000   0.000000   0.000000
   48  BE 1 XXY   0.000000  -0.026577   0.020085   0.062731   0.052052
   49  BE 1 XXZ  -0.196979   0.000000   0.000000   0.000000   0.000000
   50  BE 1 YYX   0.000000  -0.020085  -0.026577  -0.052052   0.062731
   51  BE 1 YYZ  -0.196979   0.000000   0.000000   0.000000   0.000000
   52  BE 1 ZZX   0.000000   0.080341   0.106310   0.208210  -0.250924
   53  BE 1 ZZY   0.000000   0.106310  -0.080341  -0.250924  -0.208210
   54  BE 1 XYZ   0.000000   0.000000   0.000000   0.000000   0.000000
   55  H  2  S    0.751189   0.000000   0.000000   0.000000   0.000000
   56  H  2  S    0.281670   0.000000   0.000000   0.000000   0.000000
   57  H  2  S   -4.251154   0.000000   0.000000   0.000000   0.000000
   58  H  2  S    0.093578   0.000000   0.000000   0.000000   0.000000
   59  H  2  X    0.000000   0.027981   0.037025   0.431335  -0.519823
   60  H  2  Y    0.000000   0.037025  -0.027981  -0.519823  -0.431335
   61  H  2  Z    0.531575   0.000000   0.000000   0.000000   0.000000
   62  H  2  X    0.000000  -0.002423  -0.003207   0.071074  -0.085655
   63  H  2  Y    0.000000  -0.003207   0.002423  -0.085655  -0.071074
   64  H  2  Z   -0.128915   0.000000   0.000000   0.000000   0.000000
   65  H  2  X    0.000000   0.012970   0.017163   0.013640  -0.016438
   66  H  2  Y    0.000000   0.017163  -0.012970  -0.016438  -0.013640
   67  H  2  Z   -0.003259   0.000000   0.000000   0.000000   0.000000
   68  H  2 XX   -0.024953   0.000000   0.000000   0.000000   0.000000
   69  H  2 YY   -0.024953   0.000000   0.000000   0.000000   0.000000
   70  H  2 ZZ    0.049905   0.000000   0.000000   0.000000   0.000000
   71  H  2 XY    0.000000   0.000000   0.000000   0.000000   0.000000
   72  H  2 XZ    0.000000   0.033052   0.043736   0.032615  -0.039306
   73  H  2 YZ    0.000000   0.043736  -0.033052  -0.039306  -0.032615
   74  H  2 XX   -0.003109   0.000000   0.000000   0.000000   0.000000
   75  H  2 YY   -0.003109   0.000000   0.000000   0.000000   0.000000
   76  H  2 ZZ    0.006218   0.000000   0.000000   0.000000   0.000000
   77  H  2 XY    0.000000   0.000000   0.000000   0.000000   0.000000
   78  H  2 XZ    0.000000  -0.002991  -0.003958  -0.000107   0.000128
   79  H  2 YZ    0.000000  -0.003958   0.002991   0.000128   0.000107
   80  H  3  S   -0.751187   0.000000   0.000000   0.000000   0.000000
   81  H  3  S   -0.281666   0.000000   0.000000   0.000000   0.000000
   82  H  3  S    4.251170   0.000000   0.000000   0.000000   0.000000
   83  H  3  S   -0.093582   0.000000   0.000000   0.000000   0.000000
   84  H  3  X    0.000000   0.027981   0.037025   0.431335  -0.519823
   85  H  3  Y    0.000000   0.037025  -0.027981  -0.519823  -0.431335
   86  H  3  Z    0.531576   0.000000   0.000000   0.000000   0.000000
   87  H  3  X    0.000000  -0.002423  -0.003207   0.071074  -0.085655
   88  H  3  Y    0.000000  -0.003207   0.002423  -0.085655  -0.071074
   89  H  3  Z   -0.128918   0.000000   0.000000   0.000000   0.000000
   90  H  3  X    0.000000   0.012970   0.017163   0.013640  -0.016438
   91  H  3  Y    0.000000   0.017163  -0.012970  -0.016438  -0.013640
   92  H  3  Z   -0.003259   0.000000   0.000000   0.000000   0.000000
   93  H  3 XX    0.024953   0.000000   0.000000   0.000000   0.000000
   94  H  3 YY    0.024953   0.000000   0.000000   0.000000   0.000000
   95  H  3 ZZ   -0.049906   0.000000   0.000000   0.000000   0.000000
   96  H  3 XY    0.000000   0.000000   0.000000   0.000000   0.000000
   97  H  3 XZ    0.000000  -0.033052  -0.043736  -0.032615   0.039306
   98  H  3 YZ    0.000000  -0.043736   0.033052   0.039306   0.032615
   99  H  3 XX    0.003109   0.000000   0.000000   0.000000   0.000000
  100  H  3 YY    0.003109   0.000000   0.000000   0.000000   0.000000
  101  H  3 ZZ   -0.006219   0.000000   0.000000   0.000000   0.000000
  102  H  3 XY    0.000000   0.000000   0.000000   0.000000   0.000000
  103  H  3 XZ    0.000000   0.002991   0.003958   0.000107  -0.000128
  104  H  3 YZ    0.000000   0.003958  -0.002991  -0.000128  -0.000107

                     11         12         13         14         15
                   -0.5286    -0.4387    -0.6257    -0.6257    -0.4616
                     A          A          A          A          A   
    1  BE 1  S   -0.731237   0.000000   0.000000   0.000000  -0.849888
    2  BE 1  X    0.000000   0.000000   0.915163  -0.952560   0.000000
    3  BE 1  Y    0.000000   0.000000  -0.952560  -0.915163   0.000000
    4  BE 1  Z    0.000001  -1.384935   0.000000   0.000000  -0.000010
    5  BE 1  S   -0.217370   0.000000   0.000000   0.000000  -0.451971
    6  BE 1  S    3.206579   0.000001   0.000000   0.000000  -0.069195
    7  BE 1  S    1.837059   0.000001   0.000000   0.000000  -0.552643
    8  BE 1  X    0.000000   0.000000   0.088975  -0.092612   0.000000
    9  BE 1  Y    0.000000   0.000000  -0.092612  -0.088975   0.000000
   10  BE 1  Z   -0.000000   0.277530   0.000000   0.000000   0.000001
   11  BE 1  X    0.000000   0.000000   0.434727  -0.452494   0.000000
   12  BE 1  Y    0.000000   0.000000  -0.452494  -0.434727   0.000000
   13  BE 1  Z   -0.000004   4.399598   0.000000   0.000000   0.000025
   14  BE 1  X    0.000000   0.000000  -1.967728   2.048139   0.000000
   15  BE 1  Y    0.000000   0.000000   2.048139   1.967728   0.000000
   16  BE 1  Z    0.000003  -3.170806   0.000000   0.000000   0.000008
   17  BE 1 XX   -0.037125  -0.000000   0.000000   0.000000  -0.016319
   18  BE 1 YY   -0.037125  -0.000000   0.000000   0.000000  -0.016319
   19  BE 1 ZZ    0.074251   0.000000   0.000000   0.000000   0.032639
   20  BE 1 XY    0.000000   0.000000   0.000000   0.000000   0.000000
   21  BE 1 XZ    0.000000   0.000000   0.000000   0.000000   0.000000
   22  BE 1 YZ    0.000000   0.000000   0.000000   0.000000   0.000000
   23  BE 1 XX   -0.146015   0.000000   0.000000   0.000000   0.017938
   24  BE 1 YY   -0.146015   0.000000   0.000000   0.000000   0.017938
   25  BE 1 ZZ    0.292029  -0.000000   0.000000   0.000000  -0.035876
   26  BE 1 XY    0.000000   0.000000   0.000000   0.000000   0.000000
   27  BE 1 XZ    0.000000   0.000000   0.000000   0.000000   0.000000
   28  BE 1 YZ    0.000000   0.000000   0.000000   0.000000   0.000000
   29  BE 1 XX    0.058566  -0.000000   0.000000   0.000000   0.385600
   30  BE 1 YY    0.058566  -0.000000   0.000000   0.000000   0.385600
   31  BE 1 ZZ   -0.117131   0.000000   0.000000   0.000000  -0.771200
   32  BE 1 XY    0.000000   0.000000   0.000000   0.000000   0.000000
   33  BE 1 XZ    0.000000   0.000000   0.000000   0.000000   0.000000
   34  BE 1 YZ    0.000000   0.000000   0.000000   0.000000   0.000000
   35  BE 1 XXX   0.000000   0.000000  -0.046926   0.048843   0.000000
   36  BE 1 YYY   0.000000   0.000000   0.048843   0.046926   0.000000
   37  BE 1 ZZZ  -0.000001   0.600817   0.000000   0.000000   0.000005
   38  BE 1 XXY   0.000000   0.000000   0.021843   0.020986   0.000000
   39  BE 1 XXZ   0.000000  -0.403040   0.000000   0.000000  -0.000003
   40  BE 1 YYX   0.000000   0.000000  -0.020986   0.021843   0.000000
   41  BE 1 YYZ   0.000000  -0.403040   0.000000   0.000000  -0.000003
   42  BE 1 ZZX   0.000000   0.000000   0.083943  -0.087374   0.000000
   43  BE 1 ZZY   0.000000   0.000000  -0.087374  -0.083943   0.000000
   44  BE 1 XYZ   0.000000   0.000000   0.000000   0.000000   0.000000
   45  BE 1 XXX   0.000000   0.000000   0.067312  -0.070063   0.000000
   46  BE 1 YYY   0.000000   0.000000  -0.070063  -0.067312   0.000000
   47  BE 1 ZZZ  -0.000000   0.008283   0.000000   0.000000   0.000002
   48  BE 1 XXY   0.000000   0.000000  -0.031333  -0.030103   0.000000
   49  BE 1 XXZ   0.000000  -0.005556   0.000000   0.000000  -0.000002
   50  BE 1 YYX   0.000000   0.000000   0.030103  -0.031333   0.000000
   51  BE 1 YYZ   0.000000  -0.005556   0.000000   0.000000  -0.000002
   52  BE 1 ZZX   0.000000   0.000000  -0.120411   0.125332   0.000000
   53  BE 1 ZZY   0.000000   0.000000   0.125332   0.120411   0.000000
   54  BE 1 XYZ   0.000000   0.000000   0.000000   0.000000   0.000000
   55  H  2  S    0.282357  -0.159204   0.000000   0.000000   0.109168
   56  H  2  S   -1.068116   0.463825   0.000000   0.000000  -0.623717
   57  H  2  S   -1.501742   2.109023   0.000000   0.000000   1.565235
   58  H  2  S   -0.026492  -1.789409   0.000000   0.000000  -0.155854
   59  H  2  X    0.000000   0.000000   0.304771  -0.317226   0.000000
   60  H  2  Y    0.000000   0.000000  -0.317226  -0.304771   0.000000
   61  H  2  Z   -0.069745   0.827947   0.000000   0.000000  -0.272070
   62  H  2  X    0.000000   0.000000  -0.054662   0.056896   0.000000
   63  H  2  Y    0.000000   0.000000   0.056896   0.054662   0.000000
   64  H  2  Z   -0.017340   0.800166   0.000000   0.000000   0.107343
   65  H  2  X    0.000000   0.000000   0.006575  -0.006844   0.000000
   66  H  2  Y    0.000000   0.000000  -0.006844  -0.006575   0.000000
   67  H  2  Z   -0.010899  -0.039337   0.000000   0.000000   0.001370
   68  H  2 XX    0.003958   0.059364   0.000000   0.000000   0.010335
   69  H  2 YY    0.003958   0.059364   0.000000   0.000000   0.010335
   70  H  2 ZZ   -0.007915  -0.118727   0.000000   0.000000  -0.020671
   71  H  2 XY    0.000000   0.000000   0.000000   0.000000   0.000000
   72  H  2 XZ    0.000000   0.000000   0.026442  -0.027522   0.000000
   73  H  2 YZ    0.000000   0.000000  -0.027522  -0.026442   0.000000
   74  H  2 XX   -0.001208  -0.001485   0.000000   0.000000   0.005873
   75  H  2 YY   -0.001208  -0.001485   0.000000   0.000000   0.005873
   76  H  2 ZZ    0.002416   0.002970   0.000000   0.000000  -0.011746
   77  H  2 XY    0.000000   0.000000   0.000000   0.000000   0.000000
   78  H  2 XZ    0.000000   0.000000  -0.001856   0.001932   0.000000
   79  H  2 YZ    0.000000   0.000000   0.001932   0.001856   0.000000
   80  H  3  S    0.282356   0.159203   0.000000   0.000000   0.109172
   81  H  3  S   -1.068117  -0.463825   0.000000   0.000000  -0.623718
   82  H  3  S   -1.501734  -2.109025   0.000000   0.000000   1.565231
   83  H  3  S   -0.026496   1.789410   0.000000   0.000000  -0.155822
   84  H  3  X    0.000000   0.000000   0.304771  -0.317226   0.000000
   85  H  3  Y    0.000000   0.000000  -0.317226  -0.304771   0.000000
   86  H  3  Z    0.069746   0.827947   0.000000   0.000000   0.272071
   87  H  3  X    0.000000   0.000000  -0.054662   0.056896   0.000000
   88  H  3  Y    0.000000   0.000000   0.056896   0.054662   0.000000
   89  H  3  Z    0.017339   0.800167   0.000000   0.000000  -0.107332
   90  H  3  X    0.000000   0.000000   0.006575  -0.006844   0.000000
   91  H  3  Y    0.000000   0.000000  -0.006844  -0.006575   0.000000
   92  H  3  Z    0.010899  -0.039337   0.000000   0.000000  -0.001370
   93  H  3 XX    0.003958  -0.059364   0.000000   0.000000   0.010335
   94  H  3 YY    0.003958  -0.059364   0.000000   0.000000   0.010335
   95  H  3 ZZ   -0.007915   0.118727   0.000000   0.000000  -0.020670
   96  H  3 XY    0.000000   0.000000   0.000000   0.000000   0.000000
   97  H  3 XZ    0.000000   0.000000  -0.026442   0.027522   0.000000
   98  H  3 YZ    0.000000   0.000000   0.027522   0.026442   0.000000
   99  H  3 XX   -0.001208   0.001485   0.000000   0.000000   0.005873
  100  H  3 YY   -0.001208   0.001485   0.000000   0.000000   0.005873
  101  H  3 ZZ    0.002415  -0.002970   0.000000   0.000000  -0.011745
  102  H  3 XY    0.000000   0.000000   0.000000   0.000000   0.000000
  103  H  3 XZ    0.000000   0.000000   0.001856  -0.001932   0.000000
  104  H  3 YZ    0.000000   0.000000  -0.001932  -0.001856   0.000000

                     16         17         18         19         20
                   -0.3605    -0.3265    -0.3265     0.9780     2.3493
                     A          A          A          A          A   
    1  BE 1  S   -0.000001   0.000000   0.000000   0.000000   0.000000
    2  BE 1  X    0.000000  -3.331366   5.895051   0.000000   0.000000
    3  BE 1  Y    0.000000   5.895051   3.331366   0.000000   0.000000
    4  BE 1  Z   -2.810919   0.000000   0.000000  -8.541608 -20.458733
    5  BE 1  S   -0.000000   0.000000   0.000000  -0.000000   0.000000
    6  BE 1  S    0.000001   0.000000   0.000000  -0.000000   0.000000
    7  BE 1  S    0.000001   0.000000   0.000000  -0.000000   0.000000
    8  BE 1  X    0.000000   0.369035  -0.653025   0.000000   0.000000
    9  BE 1  Y    0.000000  -0.653025  -0.369035   0.000000   0.000000
   10  BE 1  Z    0.330019   0.000000   0.000000   1.789879   1.254268
   11  BE 1  X    0.000000   1.735344  -3.070792   0.000000   0.000000
   12  BE 1  Y    0.000000  -3.070792  -1.735344   0.000000   0.000000
   13  BE 1  Z    4.586612   0.000000   0.000000 -27.967961  54.867961
   14  BE 1  X    0.000000   2.895805  -5.124302   0.000000   0.000000
   15  BE 1  Y    0.000000  -5.124302  -2.895805   0.000000   0.000000
   16  BE 1  Z   -4.140028   0.000000   0.000000 -98.316444   0.353758
   17  BE 1 XX    0.000000   0.000000   0.000000   0.000000   0.000000
   18  BE 1 YY    0.000000   0.000000   0.000000   0.000000   0.000000
   19  BE 1 ZZ   -0.000000   0.000000   0.000000  -0.000000  -0.000000
   20  BE 1 XY    0.000000   0.000000   0.000000   0.000000   0.000000
   21  BE 1 XZ    0.000000   0.000000   0.000000   0.000000   0.000000
   22  BE 1 YZ    0.000000   0.000000   0.000000   0.000000   0.000000
   23  BE 1 XX   -0.000000   0.000000   0.000000   0.000000  -0.000000
   24  BE 1 YY   -0.000000   0.000000   0.000000   0.000000  -0.000000
   25  BE 1 ZZ    0.000000   0.000000   0.000000  -0.000000   0.000000
   26  BE 1 XY    0.000000   0.000000   0.000000   0.000000   0.000000
   27  BE 1 XZ    0.000000   0.000000   0.000000   0.000000   0.000000
   28  BE 1 YZ    0.000000   0.000000   0.000000   0.000000   0.000000
   29  BE 1 XX   -0.000000   0.000000   0.000000   0.000000  -0.000000
   30  BE 1 YY   -0.000000   0.000000   0.000000   0.000000  -0.000000
   31  BE 1 ZZ    0.000000   0.000000   0.000000  -0.000000   0.000000
   32  BE 1 XY    0.000000   0.000000   0.000000   0.000000   0.000000
   33  BE 1 XZ    0.000000   0.000000   0.000000   0.000000   0.000000
   34  BE 1 YZ    0.000000   0.000000   0.000000   0.000000   0.000000
   35  BE 1 XXX   0.000000  -0.081446   0.144122   0.000000   0.000000
   36  BE 1 YYY   0.000000   0.144122   0.081446   0.000000   0.000000
   37  BE 1 ZZZ   0.499450   0.000000   0.000000  -6.598116  10.593822
   38  BE 1 XXY   0.000000   0.064453   0.036424   0.000000   0.000000
   39  BE 1 XXZ  -0.335041   0.000000   0.000000   4.426151  -7.106552
   40  BE 1 YYX   0.000000  -0.036424   0.064453   0.000000   0.000000
   41  BE 1 YYZ  -0.335041   0.000000   0.000000   4.426151  -7.106552
   42  BE 1 ZZX   0.000000   0.145695  -0.257814   0.000000   0.000000
   43  BE 1 ZZY   0.000000  -0.257814  -0.145695   0.000000   0.000000
   44  BE 1 XYZ   0.000000   0.000000   0.000000   0.000000   0.000000
   45  BE 1 XXX   0.000000  -0.164060   0.290312   0.000000   0.000000
   46  BE 1 YYY   0.000000   0.290312   0.164060   0.000000   0.000000
   47  BE 1 ZZZ  -0.302795   0.000000   0.000000  -4.142797   3.811967
   48  BE 1 XXY   0.000000   0.129832   0.073370   0.000000   0.000000
   49  BE 1 XXZ   0.203121   0.000000   0.000000   2.779073  -2.557145
   50  BE 1 YYX   0.000000  -0.073370   0.129832   0.000000   0.000000
   51  BE 1 YYZ   0.203121   0.000000   0.000000   2.779073  -2.557145
   52  BE 1 ZZX   0.000000   0.293479  -0.519326   0.000000   0.000000
   53  BE 1 ZZY   0.000000  -0.519326  -0.293479   0.000000   0.000000
   54  BE 1 XYZ   0.000000   0.000000   0.000000   0.000000   0.000000
   55  H  2  S   -0.319079   0.000000   0.000000  -2.132353   0.909176
   56  H  2  S   -1.873474   0.000000   0.000000  -1.221553   2.784332
   57  H  2  S    5.462786   0.000000   0.000000 103.182319  15.652327
   58  H  2  S   -1.647129   0.000000   0.000000  25.809487 -36.001547
   59  H  2  X    0.000000  -0.742521   1.313941   0.000000   0.000000
   60  H  2  Y    0.000000   1.313941   0.742521   0.000000   0.000000
   61  H  2  Z    0.043805   0.000000   0.000000 -28.369947  -5.342870
   62  H  2  X    0.000000  -0.142319   0.251833   0.000000   0.000000
   63  H  2  Y    0.000000   0.251833   0.142319   0.000000   0.000000
   64  H  2  Z    0.820003   0.000000   0.000000  -8.648058  12.705114
   65  H  2  X    0.000000   0.018415  -0.032582   0.000000   0.000000
   66  H  2  Y    0.000000  -0.032582  -0.018415   0.000000   0.000000
   67  H  2  Z   -0.037472   0.000000   0.000000   0.103040  -0.224949
   68  H  2 XX    0.086607   0.000000   0.000000  -0.989896   0.265965
   69  H  2 YY    0.086607   0.000000   0.000000  -0.989896   0.265965
   70  H  2 ZZ   -0.173214   0.000000   0.000000   1.979791  -0.531930
   71  H  2 XY    0.000000   0.000000   0.000000   0.000000   0.000000
   72  H  2 XZ    0.000000   0.115653  -0.204652   0.000000   0.000000
   73  H  2 YZ    0.000000  -0.204652  -0.115653   0.000000   0.000000
   74  H  2 XX    0.001333   0.000000   0.000000  -0.223906   0.390712
   75  H  2 YY    0.001333   0.000000   0.000000  -0.223906   0.390712
   76  H  2 ZZ   -0.002665   0.000000   0.000000   0.447813  -0.781424
   77  H  2 XY    0.000000   0.000000   0.000000   0.000000   0.000000
   78  H  2 XZ    0.000000  -0.001977   0.003498   0.000000   0.000000
   79  H  2 YZ    0.000000   0.003498   0.001977   0.000000   0.000000
   80  H  3  S    0.319078   0.000000   0.000000   2.132354  -0.909176
   81  H  3  S    1.873473   0.000000   0.000000   1.221553  -2.784331
   82  H  3  S   -5.462786   0.000000   0.000000-103.182319 -15.652328
   83  H  3  S    1.647129   0.000000   0.000000 -25.809487  36.001547
   84  H  3  X    0.000000  -0.742521   1.313941   0.000000   0.000000
   85  H  3  Y    0.000000   1.313941   0.742521   0.000000   0.000000
   86  H  3  Z    0.043805   0.000000   0.000000 -28.369947  -5.342870
   87  H  3  X    0.000000  -0.142319   0.251833   0.000000   0.000000
   88  H  3  Y    0.000000   0.251833   0.142319   0.000000   0.000000
   89  H  3  Z    0.820003   0.000000   0.000000  -8.648058  12.705114
   90  H  3  X    0.000000   0.018415  -0.032582   0.000000   0.000000
   91  H  3  Y    0.000000  -0.032582  -0.018415   0.000000   0.000000
   92  H  3  Z   -0.037472   0.000000   0.000000   0.103040  -0.224949
   93  H  3 XX   -0.086607   0.000000   0.000000   0.989896  -0.265965
   94  H  3 YY   -0.086607   0.000000   0.000000   0.989896  -0.265965
   95  H  3 ZZ    0.173214   0.000000   0.000000  -1.979791   0.531930
   96  H  3 XY    0.000000   0.000000   0.000000   0.000000   0.000000
   97  H  3 XZ    0.000000  -0.115653   0.204652   0.000000   0.000000
   98  H  3 YZ    0.000000   0.204652   0.115653   0.000000   0.000000
   99  H  3 XX   -0.001332   0.000000   0.000000   0.223906  -0.390712
  100  H  3 YY   -0.001332   0.000000   0.000000   0.223906  -0.390712
  101  H  3 ZZ    0.002665   0.000000   0.000000  -0.447813   0.781424
  102  H  3 XY    0.000000   0.000000   0.000000   0.000000   0.000000
  103  H  3 XZ    0.000000   0.001977  -0.003498   0.000000   0.000000
  104  H  3 YZ    0.000000  -0.003498  -0.001977   0.000000   0.000000

                     21         22         23         24         25
                    0.1510     2.8960     4.0907    -0.1372     1.0461
                     A          A          A          A          A   
    1  BE 1  S   -0.548482  -0.000000  23.046618  -0.513444   0.000000
    2  BE 1  X    0.000000   0.000000   0.000000   0.000000  -0.087788
    3  BE 1  Y    0.000000   0.000000   0.000000   0.000000  -0.215471
    4  BE 1  Z   -0.000000  34.048657   0.000000  -0.000000   0.000000
    5  BE 1  S    0.618304  -0.000000   7.034188   0.944339   0.000000
    6  BE 1  S   35.687564   0.000000  -4.519077  -0.744762   0.000000
    7  BE 1  S    4.339002  -0.000000   0.419176  10.032790   0.000000
    8  BE 1  X    0.000000   0.000000   0.000000   0.000000   0.104471
    9  BE 1  Y    0.000000   0.000000   0.000000   0.000000   0.256411
   10  BE 1  Z   -0.000000  -4.551539  -0.000000   0.000000   0.000000
   11  BE 1  X    0.000000   0.000000   0.000000   0.000000   1.153416
   12  BE 1  Y    0.000000   0.000000   0.000000   0.000000   2.830971
   13  BE 1  Z   -0.000000  -0.328788   0.000000  -0.000000   0.000000
   14  BE 1  X    0.000000   0.000000   0.000000   0.000000   2.330534
   15  BE 1  Y    0.000000   0.000000   0.000000   0.000000   5.720126
   16  BE 1  Z    0.000000 -16.639629   0.000000  -0.000000   0.000000
   17  BE 1 XX    0.208626   0.000000  -2.930822  -0.257967   0.000000
   18  BE 1 YY    0.208626   0.000000  -2.930822  -0.257967   0.000000
   19  BE 1 ZZ   -0.417252  -0.000000   5.861643   0.515934   0.000000
   20  BE 1 XY    0.000000   0.000000   0.000000   0.000000   0.000000
   21  BE 1 XZ    0.000000   0.000000   0.000000   0.000000   0.000000
   22  BE 1 YZ    0.000000   0.000000   0.000000   0.000000   0.000000
   23  BE 1 XX    1.460015   0.000000  -0.413546   0.770502   0.000000
   24  BE 1 YY    1.460015   0.000000  -0.413546   0.770502   0.000000
   25  BE 1 ZZ   -2.920030  -0.000000   0.827092  -1.541004   0.000000
   26  BE 1 XY    0.000000   0.000000   0.000000   0.000000   0.000000
   27  BE 1 XZ    0.000000   0.000000   0.000000   0.000000   0.000000
   28  BE 1 YZ    0.000000   0.000000   0.000000   0.000000   0.000000
   29  BE 1 XX   -4.987393   0.000000  -0.460779   0.094615   0.000000
   30  BE 1 YY   -4.987393   0.000000  -0.460779   0.094615   0.000000
   31  BE 1 ZZ    9.974786  -0.000000   0.921558  -0.189230   0.000000
   32  BE 1 XY    0.000000   0.000000   0.000000   0.000000   0.000000
   33  BE 1 XZ    0.000000   0.000000   0.000000   0.000000   0.000000
   34  BE 1 YZ    0.000000   0.000000   0.000000   0.000000   0.000000
   35  BE 1 XXX   0.000000   0.000000   0.000000   0.000000  -0.456715
   36  BE 1 YYY   0.000000   0.000000   0.000000   0.000000  -1.120972
   37  BE 1 ZZZ   0.000000   2.234381  -0.000000   0.000000   0.000000
   38  BE 1 XXY   0.000000   0.000000   0.000000   0.000000  -0.501314
   39  BE 1 XXZ  -0.000000  -1.498869   0.000000  -0.000000   0.000000
   40  BE 1 YYX   0.000000   0.000000   0.000000   0.000000  -0.204249
   41  BE 1 YYZ  -0.000000  -1.498869   0.000000  -0.000000   0.000000
   42  BE 1 ZZX   0.000000   0.000000   0.000000   0.000000   0.816997
   43  BE 1 ZZY   0.000000   0.000000   0.000000   0.000000   2.005255
   44  BE 1 XYZ   0.000000   0.000000   0.000000   0.000000   0.000000
   45  BE 1 XXX   0.000000   0.000000   0.000000   0.000000  -0.603623
   46  BE 1 YYY   0.000000   0.000000   0.000000   0.000000  -1.481546
   47  BE 1 ZZZ   0.000000   0.055268  -0.000000   0.000000   0.000000
   48  BE 1 XXY   0.000000   0.000000   0.000000   0.000000  -0.662568
   49  BE 1 XXZ  -0.000000  -0.037075   0.000000  -0.000000   0.000000
   50  BE 1 YYX   0.000000   0.000000   0.000000   0.000000  -0.269948
   51  BE 1 YYZ  -0.000000  -0.037075   0.000000  -0.000000   0.000000
   52  BE 1 ZZX   0.000000   0.000000   0.000000   0.000000   1.079794
   53  BE 1 ZZY   0.000000   0.000000   0.000000   0.000000   2.650270
   54  BE 1 XYZ   0.000000   0.000000   0.000000   0.000000   0.000000
   55  H  2  S   -1.776764   1.594650   2.554109   0.425702   0.000000
   56  H  2  S   -5.991637  -5.388631  -1.196347  -6.719169   0.000000
   57  H  2  S  -20.619694  -3.149740  -6.351849   2.433123   0.000000
   58  H  2  S    5.477692  -9.716251  -9.776255  -0.271571   0.000000
   59  H  2  X    0.000000   0.000000   0.000000   0.000000  -1.426147
   60  H  2  Y    0.000000   0.000000   0.000000   0.000000  -3.500379
   61  H  2  Z    1.215037   1.511477   2.326756   0.885051   0.000000
   62  H  2  X    0.000000   0.000000   0.000000   0.000000  -1.162244
   63  H  2  Y    0.000000   0.000000   0.000000   0.000000  -2.852628
   64  H  2  Z   -0.466995   5.442117   5.641239  -0.104145   0.000000
   65  H  2  X    0.000000   0.000000   0.000000   0.000000   0.199050
   66  H  2  Y    0.000000   0.000000   0.000000   0.000000   0.488546
   67  H  2  Z   -0.040937  -0.345470  -0.258005   0.087903   0.000000
   68  H  2 XX    0.132366   0.766142   0.793282   0.170687   0.000000
   69  H  2 YY    0.132366   0.766142   0.793282   0.170687   0.000000
   70  H  2 ZZ   -0.264733  -1.532284  -1.586564  -0.341373   0.000000
   71  H  2 XY    0.000000   0.000000   0.000000   0.000000   0.000000
   72  H  2 XZ    0.000000   0.000000   0.000000   0.000000   0.600314
   73  H  2 YZ    0.000000   0.000000   0.000000   0.000000   1.473422
   74  H  2 XX   -0.043309   0.245786   0.345896  -0.002489   0.000000
   75  H  2 YY   -0.043309   0.245786   0.345896  -0.002489   0.000000
   76  H  2 ZZ    0.086618  -0.491572  -0.691792   0.004979   0.000000
   77  H  2 XY    0.000000   0.000000   0.000000   0.000000   0.000000
   78  H  2 XZ    0.000000   0.000000   0.000000   0.000000   0.011848
   79  H  2 YZ    0.000000   0.000000   0.000000   0.000000   0.029080
   80  H  3  S   -1.776764  -1.594650   2.554110   0.425701   0.000000
   81  H  3  S   -5.991637   5.388631  -1.196347  -6.719169   0.000000
   82  H  3  S  -20.619694   3.149741  -6.351849   2.433123   0.000000
   83  H  3  S    5.477692   9.716251  -9.776255  -0.271571   0.000000
   84  H  3  X    0.000000   0.000000   0.000000   0.000000  -1.426147
   85  H  3  Y    0.000000   0.000000   0.000000   0.000000  -3.500379
   86  H  3  Z   -1.215037   1.511478  -2.326755  -0.885052   0.000000
   87  H  3  X    0.000000   0.000000   0.000000   0.000000  -1.162244
   88  H  3  Y    0.000000   0.000000   0.000000   0.000000  -2.852628
   89  H  3  Z    0.466995   5.442116  -5.641239   0.104145   0.000000
   90  H  3  X    0.000000   0.000000   0.000000   0.000000   0.199050
   91  H  3  Y    0.000000   0.000000   0.000000   0.000000   0.488546
   92  H  3  Z    0.040937  -0.345470   0.258005  -0.087903   0.000000
   93  H  3 XX    0.132366  -0.766142   0.793282   0.170687   0.000000
   94  H  3 YY    0.132366  -0.766142   0.793282   0.170687   0.000000
   95  H  3 ZZ   -0.264733   1.532284  -1.586564  -0.341373   0.000000
   96  H  3 XY    0.000000   0.000000   0.000000   0.000000   0.000000
   97  H  3 XZ    0.000000   0.000000   0.000000   0.000000  -0.600314
   98  H  3 YZ    0.000000   0.000000   0.000000   0.000000  -1.473422
   99  H  3 XX   -0.043309  -0.245786   0.345896  -0.002489   0.000000
  100  H  3 YY   -0.043309  -0.245786   0.345896  -0.002489   0.000000
  101  H  3 ZZ    0.086618   0.491572  -0.691792   0.004979   0.000000
  102  H  3 XY    0.000000   0.000000   0.000000   0.000000   0.000000
  103  H  3 XZ    0.000000   0.000000   0.000000   0.000000  -0.011848
  104  H  3 YZ    0.000000   0.000000   0.000000   0.000000  -0.029080

                     26         27         28         29         30
                    1.0461     0.7832     0.7343     0.3739     0.3739
                     A          A          A          A          A   
    1  BE 1  S    0.000000   0.000000   2.447288   0.000000   0.000000
    2  BE 1  X   -0.215471   0.000000   0.000000   0.028976   5.501738
    3  BE 1  Y    0.087788   0.000000   0.000000   5.501738  -0.028976
    4  BE 1  Z    0.000000  -1.411081   0.000000   0.000000   0.000000
    5  BE 1  S    0.000000  -0.000000   3.843008   0.000000   0.000000
    6  BE 1  S    0.000000   0.000000  -2.884521   0.000000   0.000000
    7  BE 1  S    0.000000  -0.000000  -0.506727   0.000000   0.000000
    8  BE 1  X    0.256411   0.000000   0.000000  -0.004940  -0.937683
    9  BE 1  Y   -0.104471   0.000000   0.000000  -0.937683   0.004940
   10  BE 1  Z    0.000000   0.175058  -0.000000   0.000000   0.000000
   11  BE 1  X    2.830971   0.000000   0.000000  -0.021418  -4.066161
   12  BE 1  Y   -1.153416   0.000000   0.000000  -4.066161   0.021418
   13  BE 1  Z    0.000000   5.223522   0.000000   0.000000   0.000000
   14  BE 1  X    5.720126   0.000000   0.000000   0.013839   2.627139
   15  BE 1  Y   -2.330534   0.000000   0.000000   2.627139  -0.013839
   16  BE 1  Z    0.000000  -4.971043   0.000000   0.000000   0.000000
   17  BE 1 XX    0.000000   0.000000  -0.267212   0.000000   0.000000
   18  BE 1 YY    0.000000   0.000000  -0.267212   0.000000   0.000000
   19  BE 1 ZZ    0.000000  -0.000000   0.534424   0.000000   0.000000
   20  BE 1 XY    0.000000   0.000000   0.000000   0.000000   0.000000
   21  BE 1 XZ    0.000000   0.000000   0.000000   0.000000   0.000000
   22  BE 1 YZ    0.000000   0.000000   0.000000   0.000000   0.000000
   23  BE 1 XX    0.000000   0.000000   2.317526   0.000000   0.000000
   24  BE 1 YY    0.000000   0.000000   2.317526   0.000000   0.000000
   25  BE 1 ZZ    0.000000  -0.000000  -4.635053   0.000000   0.000000
   26  BE 1 XY    0.000000   0.000000   0.000000   0.000000   0.000000
   27  BE 1 XZ    0.000000   0.000000   0.000000   0.000000   0.000000
   28  BE 1 YZ    0.000000   0.000000   0.000000   0.000000   0.000000
   29  BE 1 XX    0.000000   0.000000   1.173999   0.000000   0.000000
   30  BE 1 YY    0.000000   0.000000   1.173999   0.000000   0.000000
   31  BE 1 ZZ    0.000000  -0.000000  -2.347998   0.000000   0.000000
   32  BE 1 XY    0.000000   0.000000   0.000000   0.000000   0.000000
   33  BE 1 XZ    0.000000   0.000000   0.000000   0.000000   0.000000
   34  BE 1 YZ    0.000000   0.000000   0.000000   0.000000   0.000000
   35  BE 1 XXX  -1.120972   0.000000   0.000000   0.005942   1.128075
   36  BE 1 YYY   0.456715   0.000000   0.000000   1.128075  -0.005942
   37  BE 1 ZZZ   0.000000   1.001162   0.000000   0.000000   0.000000
   38  BE 1 XXY   0.204249   0.000000   0.000000   0.504491  -0.002658
   39  BE 1 XXZ   0.000000  -0.671600  -0.000000   0.000000   0.000000
   40  BE 1 YYX  -0.501314   0.000000   0.000000   0.002658   0.504491
   41  BE 1 YYZ   0.000000  -0.671600  -0.000000   0.000000   0.000000
   42  BE 1 ZZX   2.005255   0.000000   0.000000  -0.010630  -2.017962
   43  BE 1 ZZY  -0.816997   0.000000   0.000000  -2.017962   0.010630
   44  BE 1 XYZ   0.000000   0.000000   0.000000   0.000000   0.000000
   45  BE 1 XXX  -1.481546   0.000000   0.000000  -0.008882  -1.686331
   46  BE 1 YYY   0.603623   0.000000   0.000000  -1.686331   0.008882
   47  BE 1 ZZZ   0.000000  -3.990202   0.000000   0.000000   0.000000
   48  BE 1 XXY   0.269948   0.000000   0.000000  -0.754150   0.003972
   49  BE 1 XXZ   0.000000   2.676709  -0.000000   0.000000   0.000000
   50  BE 1 YYX  -0.662568   0.000000   0.000000  -0.003972  -0.754150
   51  BE 1 YYZ   0.000000   2.676709  -0.000000   0.000000   0.000000
   52  BE 1 ZZX   2.650270   0.000000   0.000000   0.015888   3.016601
   53  BE 1 ZZY  -1.079794   0.000000   0.000000   3.016601  -0.015888
   54  BE 1 XYZ   0.000000   0.000000   0.000000   0.000000   0.000000
   55  H  2  S    0.000000  -2.739776  -2.414960   0.000000   0.000000
   56  H  2  S    0.000000  -0.180983   0.249605   0.000000   0.000000
   57  H  2  S    0.000000  -1.387584  -0.860192   0.000000   0.000000
   58  H  2  S    0.000000   3.596386   5.852969   0.000000   0.000000
   59  H  2  X   -3.500379   0.000000   0.000000  -0.020357  -3.864642
   60  H  2  Y    1.426147   0.000000   0.000000  -3.864642   0.020357
   61  H  2  Z    0.000000   4.367196   3.668176   0.000000   0.000000
   62  H  2  X   -2.852628   0.000000   0.000000   0.006754   1.281520
   63  H  2  Y    1.162244   0.000000   0.000000   1.281520  -0.006754
   64  H  2  Z    0.000000   1.566433   0.013279   0.000000   0.000000
   65  H  2  X    0.488546   0.000000   0.000000  -0.000558  -0.105690
   66  H  2  Y   -0.199050   0.000000   0.000000  -0.105690   0.000558
   67  H  2  Z    0.000000  -0.185913  -0.027376   0.000000   0.000000
   68  H  2 XX    0.000000   0.413252   0.810370   0.000000   0.000000
   69  H  2 YY    0.000000   0.413252   0.810370   0.000000   0.000000
   70  H  2 ZZ    0.000000  -0.826504  -1.620740   0.000000   0.000000
   71  H  2 XY    0.000000   0.000000   0.000000   0.000000   0.000000
   72  H  2 XZ    1.473422   0.000000   0.000000  -0.002614  -0.496023
   73  H  2 YZ   -0.600314   0.000000   0.000000  -0.496023   0.002614
   74  H  2 XX    0.000000  -0.046381  -0.116721   0.000000   0.000000
   75  H  2 YY    0.000000  -0.046381  -0.116721   0.000000   0.000000
   76  H  2 ZZ    0.000000   0.092762   0.233442   0.000000   0.000000
   77  H  2 XY    0.000000   0.000000   0.000000   0.000000   0.000000
   78  H  2 XZ    0.029080   0.000000   0.000000  -0.001173  -0.222721
   79  H  2 YZ   -0.011848   0.000000   0.000000  -0.222721   0.001173
   80  H  3  S    0.000000   2.739776  -2.414960   0.000000   0.000000
   81  H  3  S    0.000000   0.180983   0.249605   0.000000   0.000000
   82  H  3  S    0.000000   1.387584  -0.860192   0.000000   0.000000
   83  H  3  S    0.000000  -3.596385   5.852969   0.000000   0.000000
   84  H  3  X   -3.500379   0.000000   0.000000  -0.020357  -3.864642
   85  H  3  Y    1.426147   0.000000   0.000000  -3.864642   0.020357
   86  H  3  Z    0.000000   4.367196  -3.668176   0.000000   0.000000
   87  H  3  X   -2.852628   0.000000   0.000000   0.006754   1.281520
   88  H  3  Y    1.162244   0.000000   0.000000   1.281520  -0.006754
   89  H  3  Z    0.000000   1.566433  -0.013279   0.000000   0.000000
   90  H  3  X    0.488546   0.000000   0.000000  -0.000558  -0.105690
   91  H  3  Y   -0.199050   0.000000   0.000000  -0.105690   0.000558
   92  H  3  Z    0.000000  -0.185913   0.027376   0.000000   0.000000
   93  H  3 XX    0.000000  -0.413252   0.810370   0.000000   0.000000
   94  H  3 YY    0.000000  -0.413252   0.810370   0.000000   0.000000
   95  H  3 ZZ    0.000000   0.826504  -1.620740   0.000000   0.000000
   96  H  3 XY    0.000000   0.000000   0.000000   0.000000   0.000000
   97  H  3 XZ   -1.473422   0.000000   0.000000   0.002614   0.496023
   98  H  3 YZ    0.600314   0.000000   0.000000   0.496023  -0.002614
   99  H  3 XX    0.000000   0.046381  -0.116721   0.000000   0.000000
  100  H  3 YY    0.000000   0.046381  -0.116721   0.000000   0.000000
  101  H  3 ZZ    0.000000  -0.092762   0.233442   0.000000   0.000000
  102  H  3 XY    0.000000   0.000000   0.000000   0.000000   0.000000
  103  H  3 XZ   -0.029080   0.000000   0.000000   0.001173   0.222721
  104  H  3 YZ    0.011848   0.000000   0.000000   0.222721  -0.001173

                     31         32         33         34         35
                    0.3483     0.3483     1.5277     1.5277     1.5702
                     A          A          A          A          A   
    1  BE 1  S    0.000000   0.000000   0.000000   0.000000   0.000000
    2  BE 1  X    0.000000   0.000000   3.015304   0.761993   0.000000
    3  BE 1  Y    0.000000   0.000000  -0.761993   3.015304   0.000000
    4  BE 1  Z    0.000000   0.000000   0.000000   0.000000   1.888790
    5  BE 1  S    0.000000   0.000000   0.000000   0.000000  -0.000000
    6  BE 1  S    0.000000   0.000000   0.000000   0.000000  -0.000000
    7  BE 1  S    0.000000   0.000000   0.000000   0.000000   0.000000
    8  BE 1  X    0.000000   0.000000  -1.312299  -0.331630   0.000000
    9  BE 1  Y    0.000000   0.000000   0.331630  -1.312299   0.000000
   10  BE 1  Z    0.000000   0.000000   0.000000   0.000000  -0.774912
   11  BE 1  X    0.000000   0.000000   3.506055   0.886011   0.000000
   12  BE 1  Y    0.000000   0.000000  -0.886011   3.506055   0.000000
   13  BE 1  Z    0.000000   0.000000   0.000000   0.000000   0.701009
   14  BE 1  X    0.000000   0.000000  -2.307356  -0.583089   0.000000
   15  BE 1  Y    0.000000   0.000000   0.583089  -2.307356   0.000000
   16  BE 1  Z    0.000000   0.000000   0.000000   0.000000   2.140521
   17  BE 1 XX    0.000000   0.000000   0.000000   0.000000   0.000000
   18  BE 1 YY    0.000000   0.000000   0.000000   0.000000   0.000000
   19  BE 1 ZZ    0.000000   0.000000   0.000000   0.000000  -0.000000
   20  BE 1 XY    0.000000   0.000000   0.000000   0.000000   0.000000
   21  BE 1 XZ    0.561570  -0.014105   0.000000   0.000000   0.000000
   22  BE 1 YZ    0.014105   0.561570   0.000000   0.000000   0.000000
   23  BE 1 XX    0.000000   0.000000   0.000000   0.000000  -0.000000
   24  BE 1 YY    0.000000   0.000000   0.000000   0.000000  -0.000000
   25  BE 1 ZZ    0.000000   0.000000   0.000000   0.000000   0.000000
   26  BE 1 XY    0.000000   0.000000   0.000000   0.000000   0.000000
   27  BE 1 XZ    3.359209  -0.084371   0.000000   0.000000   0.000000
   28  BE 1 YZ    0.084371   3.359209   0.000000   0.000000   0.000000
   29  BE 1 XX    0.000000   0.000000   0.000000   0.000000  -0.000000
   30  BE 1 YY    0.000000   0.000000   0.000000   0.000000  -0.000000
   31  BE 1 ZZ    0.000000   0.000000   0.000000   0.000000   0.000000
   32  BE 1 XY    0.000000   0.000000   0.000000   0.000000   0.000000
   33  BE 1 XZ    4.534647  -0.113894   0.000000   0.000000   0.000000
   34  BE 1 YZ    0.113894   4.534647   0.000000   0.000000   0.000000
   35  BE 1 XXX   0.000000   0.000000  -1.812221  -0.457964   0.000000
   36  BE 1 YYY   0.000000   0.000000   0.457964  -1.812221   0.000000
   37  BE 1 ZZZ   0.000000   0.000000   0.000000   0.000000   1.513300
   38  BE 1 XXY   0.000000   0.000000   0.204808  -0.810450   0.000000
   39  BE 1 XXZ   0.000000   0.000000   0.000000   0.000000  -1.015153
   40  BE 1 YYX   0.000000   0.000000  -0.810450  -0.204808   0.000000
   41  BE 1 YYZ   0.000000   0.000000   0.000000   0.000000  -1.015153
   42  BE 1 ZZX   0.000000   0.000000   3.241799   0.819232   0.000000
   43  BE 1 ZZY   0.000000   0.000000  -0.819232   3.241799   0.000000
   44  BE 1 XYZ   0.000000   0.000000   0.000000   0.000000   0.000000
   45  BE 1 XXX   0.000000   0.000000   0.468592   0.118418   0.000000
   46  BE 1 YYY   0.000000   0.000000  -0.118418   0.468592   0.000000
   47  BE 1 ZZZ   0.000000   0.000000   0.000000   0.000000   0.994491
   48  BE 1 XXY   0.000000   0.000000  -0.052958   0.209561   0.000000
   49  BE 1 XXZ   0.000000   0.000000   0.000000   0.000000  -0.667125
   50  BE 1 YYX   0.000000   0.000000   0.209561   0.052958   0.000000
   51  BE 1 YYZ   0.000000   0.000000   0.000000   0.000000  -0.667125
   52  BE 1 ZZX   0.000000   0.000000  -0.838243  -0.211833   0.000000
   53  BE 1 ZZY   0.000000   0.000000   0.211833  -0.838243   0.000000
   54  BE 1 XYZ   0.000000   0.000000   0.000000   0.000000   0.000000
   55  H  2  S    0.000000   0.000000   0.000000   0.000000  -4.210743
   56  H  2  S    0.000000   0.000000   0.000000   0.000000   0.040422
   57  H  2  S    0.000000   0.000000   0.000000   0.000000   0.642993
   58  H  2  S    0.000000   0.000000   0.000000   0.000000   0.670912
   59  H  2  X   -5.917717   0.148632  -0.381293  -0.096357   0.000000
   60  H  2  Y   -0.148632  -5.917717   0.096357  -0.381293   0.000000
   61  H  2  Z    0.000000   0.000000   0.000000   0.000000  -1.343711
   62  H  2  X   -0.674557   0.016942  -2.322334  -0.586871   0.000000
   63  H  2  Y   -0.016942  -0.674557   0.586871  -2.322334   0.000000
   64  H  2  Z    0.000000   0.000000   0.000000   0.000000   0.109338
   65  H  2  X    0.110161  -0.002767   0.235721   0.059567   0.000000
   66  H  2  Y    0.002767   0.110161  -0.059567   0.235721   0.000000
   67  H  2  Z    0.000000   0.000000   0.000000   0.000000   0.324313
   68  H  2 XX    0.000000   0.000000   0.000000   0.000000  -0.279036
   69  H  2 YY    0.000000   0.000000   0.000000   0.000000  -0.279036
   70  H  2 ZZ    0.000000   0.000000   0.000000   0.000000   0.558072
   71  H  2 XY    0.000000   0.000000   0.000000   0.000000   0.000000
   72  H  2 XZ    1.723384  -0.043285   1.663995   0.420505   0.000000
   73  H  2 YZ    0.043285   1.723384  -0.420505   1.663995   0.000000
   74  H  2 XX    0.000000   0.000000   0.000000   0.000000   0.078415
   75  H  2 YY    0.000000   0.000000   0.000000   0.000000   0.078415
   76  H  2 ZZ    0.000000   0.000000   0.000000   0.000000  -0.156829
   77  H  2 XY    0.000000   0.000000   0.000000   0.000000   0.000000
   78  H  2 XZ   -0.279787   0.007027   0.328363   0.082981   0.000000
   79  H  2 YZ   -0.007027  -0.279787  -0.082981   0.328363   0.000000
   80  H  3  S    0.000000   0.000000   0.000000   0.000000   4.210743
   81  H  3  S    0.000000   0.000000   0.000000   0.000000  -0.040422
   82  H  3  S    0.000000   0.000000   0.000000   0.000000  -0.642993
   83  H  3  S    0.000000   0.000000   0.000000   0.000000  -0.670912
   84  H  3  X    5.917717  -0.148632  -0.381293  -0.096357   0.000000
   85  H  3  Y    0.148632   5.917717   0.096357  -0.381293   0.000000
   86  H  3  Z    0.000000   0.000000   0.000000   0.000000  -1.343711
   87  H  3  X    0.674557  -0.016942  -2.322334  -0.586871   0.000000
   88  H  3  Y    0.016942   0.674557   0.586871  -2.322334   0.000000
   89  H  3  Z    0.000000   0.000000   0.000000   0.000000   0.109339
   90  H  3  X   -0.110161   0.002767   0.235721   0.059567   0.000000
   91  H  3  Y   -0.002767  -0.110161  -0.059567   0.235721   0.000000
   92  H  3  Z    0.000000   0.000000   0.000000   0.000000   0.324313
   93  H  3 XX    0.000000   0.000000   0.000000   0.000000   0.279036
   94  H  3 YY    0.000000   0.000000   0.000000   0.000000   0.279036
   95  H  3 ZZ    0.000000   0.000000   0.000000   0.000000  -0.558072
   96  H  3 XY    0.000000   0.000000   0.000000   0.000000   0.000000
   97  H  3 XZ    1.723384  -0.043285  -1.663995  -0.420505   0.000000
   98  H  3 YZ    0.043285   1.723384   0.420505  -1.663995   0.000000
   99  H  3 XX    0.000000   0.000000   0.000000   0.000000  -0.078415
  100  H  3 YY    0.000000   0.000000   0.000000   0.000000  -0.078415
  101  H  3 ZZ    0.000000   0.000000   0.000000   0.000000   0.156829
  102  H  3 XY    0.000000   0.000000   0.000000   0.000000   0.000000
  103  H  3 XZ   -0.279787   0.007027  -0.328363  -0.082981   0.000000
  104  H  3 YZ   -0.007027  -0.279787   0.082981  -0.328363   0.000000

                     36         37         38         39         40
                    1.3886     0.9033     1.1312     1.1312     0.1495
                     A          A          A          A          A   
    1  BE 1  S   -3.405574  -0.664452   0.000000   0.000000  -0.185744
    2  BE 1  X    0.000000   0.000000   0.000000   0.000000   0.000000
    3  BE 1  Y    0.000000   0.000000   0.000000   0.000000   0.000000
    4  BE 1  Z   -0.000000  -0.000000   0.000000   0.000000  -0.000000
    5  BE 1  S    3.839090   0.625808   0.000000   0.000000   1.566421
    6  BE 1  S    0.332551  -0.535789   0.000000   0.000000   1.548678
    7  BE 1  S   -0.674425   0.707312   0.000000   0.000000  -0.749914
    8  BE 1  X    0.000000   0.000000   0.000000   0.000000   0.000000
    9  BE 1  Y    0.000000   0.000000   0.000000   0.000000   0.000000
   10  BE 1  Z    0.000000   0.000000   0.000000   0.000000   0.000000
   11  BE 1  X    0.000000   0.000000   0.000000   0.000000   0.000000
   12  BE 1  Y    0.000000   0.000000   0.000000   0.000000   0.000000
   13  BE 1  Z    0.000000   0.000000   0.000000   0.000000   0.000000
   14  BE 1  X    0.000000   0.000000   0.000000   0.000000   0.000000
   15  BE 1  Y    0.000000   0.000000   0.000000   0.000000   0.000000
   16  BE 1  Z   -0.000000  -0.000000   0.000000   0.000000  -0.000001
   17  BE 1 XX   -0.393144  -1.244048   0.000000   0.000000  -0.175167
   18  BE 1 YY   -0.393144  -1.244048   0.000000   0.000000  -0.175167
   19  BE 1 ZZ    0.786288   2.488096   0.000000   0.000000   0.350333
   20  BE 1 XY    0.000000   0.000000   0.000000   0.000000   0.000000
   21  BE 1 XZ    0.000000   0.000000  -0.102984   0.677101   0.000000
   22  BE 1 YZ    0.000000   0.000000   0.677101   0.102984   0.000000
   23  BE 1 XX    1.206750   0.638499   0.000000   0.000000  -0.795550
   24  BE 1 YY    1.206750   0.638499   0.000000   0.000000  -0.795550
   25  BE 1 ZZ   -2.413500  -1.276997   0.000000   0.000000   1.591100
   26  BE 1 XY    0.000000   0.000000   0.000000   0.000000   0.000000
   27  BE 1 XZ    0.000000   0.000000  -0.378637   2.489460   0.000000
   28  BE 1 YZ    0.000000   0.000000   2.489460   0.378637   0.000000
   29  BE 1 XX    0.043737  -1.150908   0.000000   0.000000   0.606431
   30  BE 1 YY    0.043737  -1.150908   0.000000   0.000000   0.606431
   31  BE 1 ZZ   -0.087473   2.301816   0.000000   0.000000  -1.212861
   32  BE 1 XY    0.000000   0.000000   0.000000   0.000000   0.000000
   33  BE 1 XZ    0.000000   0.000000   0.267471  -1.758568   0.000000
   34  BE 1 YZ    0.000000   0.000000  -1.758568  -0.267471   0.000000
   35  BE 1 XXX   0.000000   0.000000   0.000000   0.000000   0.000000
   36  BE 1 YYY   0.000000   0.000000   0.000000   0.000000   0.000000
   37  BE 1 ZZZ   0.000000   0.000000   0.000000   0.000000   0.000000
   38  BE 1 XXY   0.000000   0.000000   0.000000   0.000000   0.000000
   39  BE 1 XXZ  -0.000000  -0.000000   0.000000   0.000000  -0.000000
   40  BE 1 YYX   0.000000   0.000000   0.000000   0.000000   0.000000
   41  BE 1 YYZ  -0.000000  -0.000000   0.000000   0.000000  -0.000000
   42  BE 1 ZZX   0.000000   0.000000   0.000000   0.000000   0.000000
   43  BE 1 ZZY   0.000000   0.000000   0.000000   0.000000   0.000000
   44  BE 1 XYZ   0.000000   0.000000   0.000000   0.000000   0.000000
   45  BE 1 XXX   0.000000   0.000000   0.000000   0.000000   0.000000
   46  BE 1 YYY   0.000000   0.000000   0.000000   0.000000   0.000000
   47  BE 1 ZZZ   0.000000   0.000000   0.000000   0.000000   0.000000
   48  BE 1 XXY   0.000000   0.000000   0.000000   0.000000   0.000000
   49  BE 1 XXZ  -0.000000  -0.000000   0.000000   0.000000  -0.000000
   50  BE 1 YYX   0.000000   0.000000   0.000000   0.000000   0.000000
   51  BE 1 YYZ  -0.000000  -0.000000   0.000000   0.000000  -0.000000
   52  BE 1 ZZX   0.000000   0.000000   0.000000   0.000000   0.000000
   53  BE 1 ZZY   0.000000   0.000000   0.000000   0.000000   0.000000
   54  BE 1 XYZ   0.000000   0.000000   0.000000   0.000000   0.000000
   55  H  2  S    2.393086  -1.942200   0.000000   0.000000  -1.328687
   56  H  2  S    0.460008   0.432949   0.000000   0.000000  -0.300362
   57  H  2  S   -0.149323   0.170084   0.000000   0.000000   0.966914
   58  H  2  S   -1.116852   0.179659   0.000000   0.000000  -0.508632
[...]
   41  BE 1 YYZ   0.000000  -0.404680  -0.000000  -0.000000  -0.000003
   42  BE 1 ZZX   0.000000  -0.000000  -0.099307  -0.069011  -0.000000
   43  BE 1 ZZY   0.000000   0.000000   0.069011  -0.099307  -0.000000
   44  BE 1 XYZ  -0.000000  -0.000000  -0.000000   0.000000  -0.000000
   45  BE 1 XXX  -0.000000   0.000000  -0.079839  -0.055482  -0.000000
   46  BE 1 YYY  -0.000000  -0.000000   0.055482  -0.079839  -0.000000
   47  BE 1 ZZZ  -0.000000   0.006941   0.000000  -0.000000   0.000003
   48  BE 1 XXY  -0.000000  -0.000000   0.024812  -0.035705  -0.000000
   49  BE 1 XXZ   0.000000  -0.004656  -0.000000   0.000000  -0.000002
   50  BE 1 YYX  -0.000000   0.000000  -0.035705  -0.024812  -0.000000
   51  BE 1 YYZ   0.000000  -0.004656  -0.000000   0.000000  -0.000002
   52  BE 1 ZZX   0.000000  -0.000000   0.142820   0.099249   0.000000
   53  BE 1 ZZY   0.000000   0.000000  -0.099249   0.142820   0.000000
   54  BE 1 XYZ  -0.000000  -0.000000  -0.000000   0.000000  -0.000000
   55  H  2  S    0.282751  -0.160597  -0.000000  -0.000000   0.108295
   56  H  2  S   -1.069960   0.454927   0.000000   0.000000  -0.620541
   57  H  2  S   -1.497053   2.133520  -0.000000  -0.000000   1.569874
   58  H  2  S   -0.026946  -1.797366   0.000000   0.000000  -0.155787
   59  H  2  X   -0.000000   0.000000  -0.366418  -0.254633  -0.000000
   60  H  2  Y   -0.000000   0.000000   0.254633  -0.366419  -0.000000
   61  H  2  Z   -0.070546   0.828362  -0.000000  -0.000000  -0.271879
   62  H  2  X   -0.000000   0.000000   0.063853   0.044373  -0.000000
   63  H  2  Y   -0.000000   0.000000  -0.044373   0.063853  -0.000000
   64  H  2  Z   -0.017003   0.804060   0.000000  -0.000000   0.107416
   65  H  2  X    0.000000   0.000000  -0.007784  -0.005409  -0.000000
   66  H  2  Y    0.000000   0.000000   0.005409  -0.007784  -0.000000
   67  H  2  Z   -0.010894  -0.039521   0.000000   0.000000   0.001405
   68  H  2 XX    0.003990   0.059769  -0.000000  -0.000000   0.010325
   69  H  2 YY    0.003990   0.059769  -0.000000  -0.000000   0.010325
   70  H  2 ZZ   -0.007980  -0.119539   0.000000   0.000000  -0.020650
   71  H  2 XY   -0.000000  -0.000000  -0.000000   0.000000  -0.000000
   72  H  2 XZ    0.000000  -0.000000  -0.031037  -0.021568   0.000000
   73  H  2 YZ    0.000000   0.000000   0.021568  -0.031037   0.000000
   74  H  2 XX   -0.001190  -0.001480   0.000000   0.000000   0.005878
   75  H  2 YY   -0.001190  -0.001480   0.000000   0.000000   0.005878
   76  H  2 ZZ    0.002380   0.002960  -0.000000  -0.000000  -0.011755
   77  H  2 XY   -0.000000  -0.000000  -0.000000   0.000000  -0.000000
   78  H  2 XZ    0.000000  -0.000000   0.002190   0.001522   0.000000
   79  H  2 YZ    0.000000  -0.000000  -0.001522   0.002190   0.000000
   80  H  3  S    0.282752   0.160597  -0.000000  -0.000000   0.108297
   81  H  3  S   -1.069960  -0.454927  -0.000000   0.000000  -0.620541
   82  H  3  S   -1.497057  -2.133514   0.000000  -0.000000   1.569882
   83  H  3  S   -0.026947   1.797366   0.000000   0.000000  -0.155763
   84  H  3  X   -0.000000  -0.000000  -0.366418  -0.254633  -0.000000
   85  H  3  Y   -0.000000  -0.000000   0.254633  -0.366419  -0.000000
   86  H  3  Z    0.070548   0.828363   0.000000   0.000000   0.271878
   87  H  3  X   -0.000000  -0.000000   0.063853   0.044373   0.000000
   88  H  3  Y   -0.000000  -0.000000  -0.044373   0.063853   0.000000
   89  H  3  Z    0.017003   0.804060  -0.000000  -0.000000  -0.107409
   90  H  3  X   -0.000000  -0.000000  -0.007784  -0.005409   0.000000
   91  H  3  Y   -0.000000  -0.000000   0.005409  -0.007784   0.000000
   92  H  3  Z    0.010894  -0.039521  -0.000000  -0.000000  -0.001404
   93  H  3 XX    0.003990  -0.059769   0.000000   0.000000   0.010325
   94  H  3 YY    0.003990  -0.059769   0.000000   0.000000   0.010325
   95  H  3 ZZ   -0.007980   0.119539  -0.000000  -0.000000  -0.020650
   96  H  3 XY    0.000000  -0.000000   0.000000   0.000000   0.000000
   97  H  3 XZ   -0.000000   0.000000   0.031037   0.021568   0.000000
   98  H  3 YZ   -0.000000  -0.000000  -0.021568   0.031037  -0.000000
   99  H  3 XX   -0.001190   0.001480   0.000000  -0.000000   0.005877
  100  H  3 YY   -0.001190   0.001480   0.000000  -0.000000   0.005877
  101  H  3 ZZ    0.002380  -0.002960  -0.000000   0.000000  -0.011755
  102  H  3 XY    0.000000  -0.000000   0.000000   0.000000   0.000000
  103  H  3 XZ   -0.000000  -0.000000  -0.002190  -0.001522   0.000000
  104  H  3 YZ   -0.000000  -0.000000   0.001522  -0.002190   0.000000

                     16         17         18
                    0.0000     0.0000     0.0000
                     A          A          A   
    1  BE 1  S   -0.000001   0.000000  -0.000000
    2  BE 1  X    0.000000  -4.659619   4.913861
    3  BE 1  Y   -0.000000   4.913865   4.659619
    4  BE 1  Z    2.804034   0.000000  -0.000000
    5  BE 1  S   -0.000000  -0.000000   0.000000
    6  BE 1  S   -0.000001  -0.000000   0.000000
    7  BE 1  S   -0.000001   0.000000   0.000000
    8  BE 1  X   -0.000000   0.516522  -0.544700
    9  BE 1  Y    0.000000  -0.544701  -0.516521
   10  BE 1  Z   -0.328718   0.000000   0.000000
   11  BE 1  X   -0.000000   2.428999  -2.561527
   12  BE 1  Y    0.000000  -2.561527  -2.428999
   13  BE 1  Z   -4.566030  -0.000000   0.000000
   14  BE 1  X   -0.000000   4.045833  -4.266594
   15  BE 1  Y    0.000000  -4.266594  -4.045832
   16  BE 1  Z    4.126260  -0.000000   0.000000
   17  BE 1 XX   -0.000000   0.000000  -0.000000
   18  BE 1 YY   -0.000000   0.000000  -0.000000
   19  BE 1 ZZ    0.000000  -0.000000   0.000000
   20  BE 1 XY    0.000000   0.000000   0.000000
   21  BE 1 XZ    0.000000  -0.000000  -0.000000
   22  BE 1 YZ    0.000000  -0.000000  -0.000000
   23  BE 1 XX    0.000000   0.000000   0.000000
   24  BE 1 YY    0.000000   0.000000   0.000000
   25  BE 1 ZZ   -0.000001  -0.000000  -0.000000
   26  BE 1 XY    0.000000   0.000000   0.000000
   27  BE 1 XZ    0.000000  -0.000000  -0.000000
   28  BE 1 YZ    0.000000  -0.000000  -0.000000
   29  BE 1 XX    0.000001  -0.000000  -0.000000
   30  BE 1 YY    0.000001  -0.000000  -0.000000
   31  BE 1 ZZ   -0.000001   0.000000   0.000000
   32  BE 1 XY    0.000000   0.000000   0.000000
   33  BE 1 XZ    0.000000  -0.000000  -0.000000
   34  BE 1 YZ    0.000000  -0.000000  -0.000000
   35  BE 1 XXX  -0.000000  -0.114085   0.120309
   36  BE 1 YYY  -0.000000   0.120308   0.114085
   37  BE 1 ZZZ  -0.496583  -0.000000   0.000000
   38  BE 1 XXY  -0.000000   0.053803   0.051020
   39  BE 1 XXZ   0.333118   0.000000  -0.000000
   40  BE 1 YYX  -0.000000  -0.051020   0.053804
   41  BE 1 YYZ   0.333118   0.000000  -0.000000
   42  BE 1 ZZX   0.000000   0.204081  -0.215215
   43  BE 1 ZZY   0.000000  -0.215214  -0.204081
   44  BE 1 XYZ   0.000000   0.000000   0.000000
   45  BE 1 XXX   0.000000  -0.229467   0.241987
   46  BE 1 YYY  -0.000000   0.241987   0.229468
   47  BE 1 ZZZ   0.302975  -0.000000   0.000000
   48  BE 1 XXY  -0.000000   0.108220   0.102621
   49  BE 1 XXZ  -0.203242   0.000000  -0.000000
   50  BE 1 YYX   0.000000  -0.102621   0.108220
   51  BE 1 YYZ  -0.203242   0.000000  -0.000000
   52  BE 1 ZZX  -0.000000   0.410484  -0.432880
   53  BE 1 ZZY   0.000000  -0.432879  -0.410484
   54  BE 1 XYZ   0.000000   0.000000   0.000000
   55  H  2  S    0.318630   0.000000  -0.000000
   56  H  2  S    1.875890  -0.000000   0.000000
   57  H  2  S   -5.454606   0.000000   0.000000
   58  H  2  S    1.638856   0.000000   0.000000
   59  H  2  X    0.000000  -1.037115   1.093711
   60  H  2  Y    0.000000   1.093709   1.037115
   61  H  2  Z   -0.039622   0.000000  -0.000000
   62  H  2  X    0.000000  -0.199060   0.209916
   63  H  2  Y    0.000000   0.209915   0.199061
   64  H  2  Z   -0.816278  -0.000000   0.000000
   65  H  2  X    0.000000   0.025787  -0.027195
   66  H  2  Y    0.000000  -0.027195  -0.025786
   67  H  2  Z    0.037290  -0.000000   0.000000
   68  H  2 XX   -0.086338   0.000000  -0.000000
   69  H  2 YY   -0.086338   0.000000  -0.000000
   70  H  2 ZZ    0.172676  -0.000000   0.000000
   71  H  2 XY    0.000000   0.000000   0.000000
   72  H  2 XZ   -0.000000   0.161858  -0.170688
   73  H  2 YZ   -0.000000  -0.170687  -0.161858
   74  H  2 XX   -0.001341  -0.000000   0.000000
   75  H  2 YY   -0.001341  -0.000000   0.000000
   76  H  2 ZZ    0.002681   0.000000  -0.000000
   77  H  2 XY    0.000000   0.000000   0.000000
   78  H  2 XZ   -0.000000  -0.002766   0.002923
   79  H  2 YZ   -0.000000   0.002923   0.002766
   80  H  3  S   -0.318630   0.000000  -0.000000
   81  H  3  S   -1.875891   0.000000  -0.000000
   82  H  3  S    5.454610  -0.000000   0.000000
   83  H  3  S   -1.638856  -0.000000   0.000000
   84  H  3  X   -0.000000  -1.037115   1.093711
   85  H  3  Y   -0.000000   1.093709   1.037115
   86  H  3  Z   -0.039623   0.000000   0.000000
   87  H  3  X   -0.000000  -0.199060   0.209916
   88  H  3  Y   -0.000000   0.209915   0.199061
   89  H  3  Z   -0.816278   0.000000  -0.000000
   90  H  3  X   -0.000000   0.025787  -0.027195
   91  H  3  Y   -0.000000  -0.027195  -0.025786
   92  H  3  Z    0.037290   0.000000  -0.000000
   93  H  3 XX    0.086338   0.000000   0.000000
   94  H  3 YY    0.086338   0.000000   0.000000
   95  H  3 ZZ   -0.172676  -0.000000  -0.000000
   96  H  3 XY    0.000000   0.000000  -0.000000
   97  H  3 XZ   -0.000000  -0.161858   0.170688
   98  H  3 YZ   -0.000000   0.170687   0.161858
   99  H  3 XX    0.001341  -0.000000   0.000000
  100  H  3 YY    0.001341  -0.000000   0.000000
  101  H  3 ZZ   -0.002681   0.000000  -0.000000
  102  H  3 XY    0.000000   0.000000  -0.000000
  103  H  3 XZ   -0.000000   0.002766  -0.002923
  104  H  3 YZ   -0.000000  -0.002923  -0.002766
 ...... END OF DENSITY MATRIX CALCULATION ...... 
 CPU     0: STEP CPU TIME=     0.04 TOTAL CPU TIME=          5.5 (      0.1 MIN)
 TOTAL WALL CLOCK TIME=          8.5 SECONDS, CPU UTILIZATION IS    63.93%

     --------------------------------------------------------
     GUGA  CI PROPERTIES...FOR THE WAVEFUNCTION OF STATE    1
               USING THE EXPECTATION VALUE DENSITY
     --------------------------------------------------------

          -----------------
          ENERGY COMPONENTS
          -----------------

         WAVEFUNCTION NORMALIZATION =       1.0000000000

                ONE ELECTRON ENERGY =      -5.9957640231
                TWO ELECTRON ENERGY =       1.9964665741
           NUCLEAR REPULSION ENERGY =       1.7953088221
                                      ------------------
                       TOTAL ENERGY =      -2.2039886269

 ELECTRON-ELECTRON POTENTIAL ENERGY =       1.9964665741
  NUCLEUS-ELECTRON POTENTIAL ENERGY =      -7.7367396785
   NUCLEUS-NUCLEUS POTENTIAL ENERGY =       1.7953088221
                                      ------------------
             TOTAL POTENTIAL ENERGY =      -3.9449642823
               TOTAL KINETIC ENERGY =       1.7409756554
                 VIRIAL RATIO (V/T) =       2.2659502849

          ---------------------------------------
          MULLIKEN AND LOWDIN POPULATION ANALYSES
          ---------------------------------------

               ----- POPULATIONS IN EACH AO -----
                             MULLIKEN      LOWDIN
              1  BE 1  S      1.49504     0.14701
              2  BE 1  X     -0.00151     0.00078
              3  BE 1  Y     -0.00151     0.00078
              4  BE 1  Z      1.06220     0.19999
              5  BE 1  S      0.00179     0.06729
              6  BE 1  S     -0.21502     0.08740
              7  BE 1  S     -0.02027     0.02840
              8  BE 1  X      0.00056     0.00052
              9  BE 1  Y      0.00056     0.00052
             10  BE 1  Z      0.01326     0.05492
             11  BE 1  X      0.00511     0.00131
             12  BE 1  Y      0.00511     0.00131
             13  BE 1  Z      0.28023     0.21644
             14  BE 1  X      0.00187     0.00045
             15  BE 1  Y      0.00187     0.00045
             16  BE 1  Z      0.22289     0.13250
             17  BE 1 XX      0.03234     0.04723
             18  BE 1 YY      0.00000     0.04723
             19  BE 1 ZZ      0.00000     0.16597
             20  BE 1 XY      0.00000     0.00000
             21  BE 1 XZ      0.00000     0.00000
             22  BE 1 YZ      0.00000     0.00000
             23  BE 1 XX      0.02813     0.03230
             24  BE 1 YY      0.00000     0.03230
             25  BE 1 ZZ      0.00000     0.15843
             26  BE 1 XY      0.00000     0.00000
             27  BE 1 XZ      0.00000     0.00000
             28  BE 1 YZ      0.00000     0.00000
             29  BE 1 XX      0.01853     0.00559
             30  BE 1 YY      0.00000     0.00559
             31  BE 1 ZZ      0.00000     0.04353
             32  BE 1 XY      0.00000     0.00000
             33  BE 1 XZ      0.00000    -0.00000
             34  BE 1 YZ      0.00000     0.00000
             35  BE 1 XXX     0.00000     0.00057
             36  BE 1 YYY     0.00000     0.00057
             37  BE 1 ZZZ     0.00021     0.22981
             38  BE 1 XXY     0.01498     0.00026
             39  BE 1 XXZ     0.00021     0.03285
             40  BE 1 YYX     0.00000     0.00026
             41  BE 1 YYZ     0.00000     0.03285
             42  BE 1 ZZX     0.00000     0.00063
             43  BE 1 ZZY     0.00000     0.00063
             44  BE 1 XYZ     0.00000     0.00000
             45  BE 1 XXX     0.00000     0.00011
             46  BE 1 YYY     0.00000     0.00011
             47  BE 1 ZZZ     0.00031     0.09123
             48  BE 1 XXY     0.01125     0.00005
             49  BE 1 XXZ     0.00031     0.01470
             50  BE 1 YYX     0.00000     0.00005
             51  BE 1 YYZ     0.00000     0.01470
             52  BE 1 ZZX     0.00000     0.00051
             53  BE 1 ZZY     0.00000     0.00051
             54  BE 1 XYZ     0.00000     0.00000
             55  H  2  S      1.40104     0.32270
             56  H  2  S     -0.03679     0.03647
             57  H  2  S     -0.52433     0.11601
             58  H  2  S     -0.32342     0.21362
             59  H  2  X      0.00022     0.00034
             60  H  2  Y      0.00022     0.00034
             61  H  2  Z      0.00801     0.02900
             62  H  2  X      0.00000     0.00031
             63  H  2  Y      0.00000     0.00031
             64  H  2  Z     -0.00637     0.01418
             65  H  2  X      0.00003     0.00003
             66  H  2  Y      0.00003     0.00003
             67  H  2  Z      0.00197     0.00250
             68  H  2 XX      0.00016     0.03116
             69  H  2 YY      0.00000     0.03116
             70  H  2 ZZ      0.00000     0.04919
             71  H  2 XY     -0.00012     0.00000
             72  H  2 XZ     -0.00012     0.00012
             73  H  2 YZ      0.00000     0.00012
             74  H  2 XX      0.00022     0.06009
             75  H  2 YY      0.00000     0.06009
             76  H  2 ZZ      0.00000     0.08285
             77  H  2 XY      0.00000     0.00000
             78  H  2 XZ      0.00000     0.00001
             79  H  2 YZ      0.00000     0.00001
             80  H  3  S      1.40104     0.32270
             81  H  3  S     -0.03679     0.03647
             82  H  3  S     -0.52433     0.11601
             83  H  3  S     -0.32342     0.21362
             84  H  3  X      0.00022     0.00034
             85  H  3  Y      0.00022     0.00034
             86  H  3  Z      0.00801     0.02900
             87  H  3  X      0.00000     0.00031
             88  H  3  Y      0.00000     0.00031
             89  H  3  Z     -0.00637     0.01418
             90  H  3  X      0.00003     0.00003
             91  H  3  Y      0.00003     0.00003
             92  H  3  Z      0.00197     0.00250
             93  H  3 XX      0.00016     0.03116
             94  H  3 YY      0.00000     0.03116
             95  H  3 ZZ      0.00000     0.04919
             96  H  3 XY     -0.00012     0.00000
             97  H  3 XZ     -0.00012     0.00012
             98  H  3 YZ      0.00000     0.00012
             99  H  3 XX      0.00022     0.06009
            100  H  3 YY      0.00000     0.06009
            101  H  3 ZZ      0.00000     0.08285
            102  H  3 XY      0.00000     0.00000
            103  H  3 XZ      0.00000     0.00001
            104  H  3 YZ      0.00000     0.00001

          ----- MULLIKEN ATOMIC OVERLAP POPULATIONS -----
          (OFF-DIAGONAL ELEMENTS NEED TO BE MULTIPLIED BY 2)

             1           2           3

    1    2.6116118
    2    0.1734262   0.4147283
    3    0.1734264  -0.0673867   0.4147281

          TOTAL MULLIKEN AND LOWDIN ATOMIC POPULATIONS
       ATOM         MULL.POP.    CHARGE          LOW.POP.     CHARGE
    1 BE            2.958464   -0.958464         1.898673    0.101327
    2 H             0.520768    0.479232         1.050664   -0.050664
    3 H             0.520768    0.479232         1.050664   -0.050664

          MULLIKEN SPHERICAL HARMONIC POPULATIONS
       ATOM           S       P       D      F      G      H      I    TOTAL
    1 BE            1.26    1.59    0.08   0.03   0.00   0.00   0.00    2.96
    2 H             0.52    0.00    0.00   0.00   0.00   0.00   0.00    0.52
    3 H             0.52    0.00    0.00   0.00   0.00   0.00   0.00    0.52

          ---------------------
          ELECTROSTATIC MOMENTS
          ---------------------

 POINT   1           X           Y           Z (BOHR)    CHARGE
                 0.000000    0.000000    0.000000        0.00 (A.U.)
         DX          DY          DZ         /D/  (DEBYE)
     0.000000    0.000000   -0.000000    0.000000
 ...... END OF PROPERTY EVALUATION ......
 CPU     0: STEP CPU TIME=     0.07 TOTAL CPU TIME=          5.5 (      0.1 MIN)
 TOTAL WALL CLOCK TIME=          9.0 SECONDS, CPU UTILIZATION IS    61.38%
                580000  WORDS OF DYNAMIC MEMORY USED
 EXECUTION OF GAMESS TERMINATED NORMALLY Mon Aug  2 07:28:06 2021
 DDI: 1254696 bytes (1.2 MB / 0 MWords) used by master data server.

 ----------------------------------------
 CPU timing information for all processes
 ========================================
 0: 1.799 + 4.456 = 6.256
 1: 5.383 + 4.10 = 9.394
 2: 5.501 + 3.970 = 9.472
 3: 5.406 + 3.979 = 9.386
 4: 5.521 + 3.957 = 9.478
 5: 5.431 + 3.959 = 9.391
 6: 5.600 + 3.881 = 9.482
 7: 5.449 + 3.920 = 9.369
 8: 11.380 + 0.359 = 11.740
 9: 11.333 + 0.375 = 11.709
 10: 11.393 + 0.335 = 11.729
 11: 11.257 + 0.463 = 11.720
 12: 11.327 + 0.392 = 11.719
 13: 11.356 + 0.359 = 11.716
 14: 11.327 + 0.403 = 11.731
 15: 11.354 + 0.339 = 11.694
 ----------------------------------------
unset echo
----- accounting info -----
Files used on the master node nid00013 were:
-rw-rw---- 1 haihan haihan     34866 Aug  2 07:27 /global/cscratch1/sd/haihan/gamess_45036925/NO_cisd_4.F05
-rw-rw---- 1 haihan haihan      1376 Aug  2 07:28 /global/cscratch1/sd/haihan/gamess_45036925/NO_cisd_4.F09
-rw-rw---- 1 haihan haihan 262144000 Aug  2 07:28 /global/cscratch1/sd/haihan/gamess_45036925/NO_cisd_4.F10
-rw-rw---- 1 haihan haihan    289664 Aug  2 07:28 /global/cscratch1/sd/haihan/gamess_45036925/NO_cisd_4.F11
-rw-rw---- 1 haihan haihan      4680 Aug  2 07:28 /global/cscratch1/sd/haihan/gamess_45036925/NO_cisd_4.F12
-rw-rw---- 1 haihan haihan   4000008 Aug  2 07:28 /global/cscratch1/sd/haihan/gamess_45036925/NO_cisd_4.F14
-rw-rw---- 1 haihan haihan    164712 Aug  2 07:28 /global/cscratch1/sd/haihan/gamess_45036925/NO_cisd_4.F15
-rw-rw---- 1 haihan haihan    200216 Aug  2 07:28 /global/cscratch1/sd/haihan/gamess_45036925/NO_cisd_4.F16
-rw-rw---- 1 haihan haihan     34513 Aug  2 07:28 /global/cscratch1/sd/haihan/gamess_45036925/NO_cisd_4.dat
ls: No match.
ls: No match.
ls: No match.
Mon Aug  2 07:28:09 PDT 2021
0.692u 0.269s 0:18.92 5.0%	0+0k 1480+9904io 5pf+0w
