
 Primary working directories    : /global/cscratch1/sd/aannabe
 Secondary working directories  : /global/cscratch1/sd/aannabe
 Wavefunction directory         : /global/homes/a/aannabe/wfu/
 Main file repository           : /global/cscratch1/sd/aannabe/

 SHA1      : 19cd028119e0e09f93f0674bd8af7968d9b3eff6
 NAME      : 2015.1.36
 ARCHNAME  : linux/x86_64
 FC        : /opt/cray/pe/craype/2.5.14/bin/ftn
 BLASLIB   : -L/opt/intel/compilers_and_libraries_2018.1.163/linux/mkl/lib/intel64 -Wl,-_start-group -lmkl_intel_ilp64 -lmkl_intel_thread -lmkl_core -Wl,-_end-group -liomp5
 id        : lbl

 Nodes     nprocs
 nid00781    11
 Number of processes for MPI-2 version of Molpro:   nprocs(total)=   12   nprocs(compute)=   11   nprocs(helper)=    1

 Using customized tuning parameters: mindgm=7; mindgv=16; mindgc=1; mindgr=1; noblas=0; minvec=7
 default implementation of scratch files=sf  

 ***,Calculation of O
 memory,1,g
 
 gthresh,oneint=1.0E-13
 gthresh,twoint=1.0E-13
 
                                                                                 !set,dkroll=1,dkho=99,dkhp=2
 
 geometry={
    4
    C2H2
    C  0.0000  0.0000  0.6013
    C  0.0000  0.0000 -0.6013
    H  0.0000  0.0000  1.6644
    H  0.0000  0.0000 -1.6644
 }
 
 basis={
 Including file /global/cscratch1/sd/aannabe/repos/pseudopotentiallibrary/recipes/C/ccECP/C.ccECP.molpro
 Including file /global/cscratch1/sd/aannabe/repos/pseudopotentiallibrary/recipes/H/ccECP/H.ccECP.molpro
 
 Including file /global/cscratch1/sd/aannabe/repos/pseudopotentiallibrary/recipes/C/ccECP/C.aug-cc-pVQZ.molpro
 Including file /global/cscratch1/sd/aannabe/repos/pseudopotentiallibrary/recipes/H/ccECP/H.aug-cc-pVQZ.molpro
 }
 
 {rhf,nitord=30;
  maxit,100;
  wf,10,1,0
  print,orbitals=1
 }
 
 scf(i)=energy
 _CC_NORM_MAX=2.0
 {uccsd(t),shifts=0.1,shiftp=0.1,thrdis=1.0;diis,1,1,15,1;maxit,100;core}
 ccsd(i)=energy
 
 table,scf,ccsd
 save, 4.csv, new
 

 Variables initialized (889), CPU time= 0.00 sec
 Commands  initialized (702), CPU time= 0.01 sec, 572 directives.
 Default parameters read. Elapsed time= 0.14 sec

 Checking input...
 Passed
1


                                         ***  PROGRAM SYSTEM MOLPRO  ***
                                       Copyright, TTI GmbH Stuttgart, 2015
                                    Version 2015.1 linked Dec 29 2018 15:55:43


 **********************************************************************************************************************************
 LABEL *   Calculation of O                                                              
  64 bit mpp version                                                                     DATE: 02-Aug-21          TIME: 12:00:34  
 **********************************************************************************************************************************

 SHA1:             19cd028119e0e09f93f0674bd8af7968d9b3eff6
 **********************************************************************************************************************************

 THRESHOLDS:

 ZERO    =  1.00D-12  ONEINT  =  1.00D-13  TWOINT  =  1.00D-11  PREFAC  =  1.00D-14  LOCALI  =  1.00D-09  EORDER  =  1.00D-04
 ENERGY  =  0.00D+00  ETEST   =  0.00D+00  EDENS   =  0.00D+00  THRDEDEF=  1.00D-06  GRADIENT=  1.00D-02  STEP    =  1.00D-03
 ORBITAL =  1.00D-05  CIVEC   =  1.00D-05  COEFF   =  1.00D-04  PRINTCI =  5.00D-02  PUNCHCI =  9.90D+01  OPTGRAD =  3.00D-04
 OPTENERG=  1.00D-06  OPTSTEP =  3.00D-04  THRGRAD =  1.00D-10  COMPRESS=  1.00D-11  VARMIN  =  1.00D-07  VARMAX  =  1.00D-03
 THRDOUB =  0.00D+00  THRDIV  =  1.00D-05  THRRED  =  1.00D-07  THRPSP  =  1.00D+00  THRDC   =  1.00D-10  THRCS   =  1.00D-10
 THRNRM  =  1.00D-08  THREQ   =  0.00D+00  THRDE   =  1.00D+00  THRREF  =  1.00D-05  SPARFAC =  1.00D+00  THRDLP  =  1.00D-07
 THRDIA  =  1.00D-10  THRDLS  =  1.00D-07  THRGPS  =  0.00D+00  THRKEX  =  0.00D+00  THRDIS  =  2.00D-01  THRVAR  =  1.00D-10
 THRLOC  =  1.00D-06  THRGAP  =  1.00D-06  THRLOCT = -1.00D+00  THRGAPT = -1.00D+00  THRORB  =  1.00D-06  THRMLTP =  0.00D+00
 THRCPQCI=  1.00D-10  KEXTA   =  0.00D+00  THRCOARS=  0.00D+00  SYMTOL  =  1.00D-06  GRADTOL =  1.00D-06  THROVL  =  1.00D-08
 THRORTH =  1.00D-08  GRID    =  1.00D-06  GRIDMAX =  1.00D-03  DTMAX   =  0.00D+00  THROCCDE=  1.00D-01  THROCCDE=  1.00D-01



 THRESHOLDS:

 ZERO    =  1.00D-12  ONEINT  =  1.00D-13  TWOINT  =  1.00D-13  PREFAC  =  1.00D-14  LOCALI  =  1.00D-09  EORDER  =  1.00D-04
 ENERGY  =  0.00D+00  ETEST   =  0.00D+00  EDENS   =  0.00D+00  THRDEDEF=  1.00D-06  GRADIENT=  1.00D-02  STEP    =  1.00D-03
 ORBITAL =  1.00D-05  CIVEC   =  1.00D-05  COEFF   =  1.00D-04  PRINTCI =  5.00D-02  PUNCHCI =  9.90D+01  OPTGRAD =  3.00D-04
 OPTENERG=  1.00D-06  OPTSTEP =  3.00D-04  THRGRAD =  1.00D-10  COMPRESS=  1.00D-11  VARMIN  =  1.00D-07  VARMAX  =  1.00D-03
 THRDOUB =  0.00D+00  THRDIV  =  1.00D-05  THRRED  =  1.00D-07  THRPSP  =  1.00D+00  THRDC   =  1.00D-10  THRCS   =  1.00D-10
 THRNRM  =  1.00D-08  THREQ   =  0.00D+00  THRDE   =  1.00D+00  THRREF  =  1.00D-05  SPARFAC =  1.00D+00  THRDLP  =  1.00D-07
 THRDIA  =  1.00D-10  THRDLS  =  1.00D-07  THRGPS  =  0.00D+00  THRKEX  =  0.00D+00  THRDIS  =  2.00D-01  THRVAR  =  1.00D-10
 THRLOC  =  1.00D-06  THRGAP  =  1.00D-06  THRLOCT = -1.00D+00  THRGAPT = -1.00D+00  THRORB  =  1.00D-06  THRMLTP =  0.00D+00
 THRCPQCI=  1.00D-10  KEXTA   =  0.00D+00  THRCOARS=  0.00D+00  SYMTOL  =  1.00D-06  GRADTOL =  1.00D-06  THROVL  =  1.00D-08
 THRORTH =  1.00D-08  GRID    =  1.00D-06  GRIDMAX =  1.00D-03  DTMAX   =  0.00D+00  THROCCDE=  1.00D-01  THROCCDE=  1.00D-01



Geometry recognized as XYZ


 Variable memory set to 1000000000 words,  buffer space   230000 words

 SETTING BASIS          =    USERDEF


 Recomputing integrals since basis changed


 Using spherical harmonics



 PROGRAM * SEWARD (Integral evaluation for generally contracted gaussian basis sets)     Author: Roland Lindh, 1990

 Geometry written to block  1 of record 700


 Point group  D2h 



 ATOMIC COORDINATES

 NR  ATOM    CHARGE       X              Y              Z

   1  C       4.00    0.000000000    0.000000000    1.136292319
   2  C       4.00    0.000000000    0.000000000   -1.136292319
   3  H       1.00    0.000000000    0.000000000    3.145260162
   4  H       1.00    0.000000000    0.000000000   -3.145260162

 Bond lengths in Bohr (Angstrom)

 1-2  2.272584637  1-3  2.008967843  2-4  2.008967843
     ( 1.202600000)     ( 1.063100000)     ( 1.063100000)

 Bond angles

  1-2-4  180.00000000   2-1-3  180.00000000

 NUCLEAR CHARGE:                   10
 NUMBER OF PRIMITIVE AOS:         396
 NUMBER OF SYMMETRY AOS:          328
 NUMBER OF CONTRACTIONS:          250   (  49Ag  +  30B3u +  30B2u +  16B1g +  49B1u +  30B2g +  30B3g +  16Au  )
 NUMBER OF CORE ORBITALS:           0   (   0Ag  +   0B3u +   0B2u +   0B1g +   0B1u +   0B2g +   0B3g +   0Au  )
 NUMBER OF VALENCE ORBITALS:       10   (   3Ag  +   1B3u +   1B2u +   0B1g +   3B1u +   1B2g +   1B3g +   0Au  )


 NUCLEAR REPULSION ENERGY   13.05003672

 EXTRA SYMMETRY OF AOS IN SYMMETRY 1:   1 1 1 1 1 1 1 1 1 1   1 2 1 2 1 2 1 2 1 2   1 2 1 2 1 3 2 1 3 2   1 1 1 1 1 1 1 1 1 1
                                        2 1 2 1 2 1 2 1 2
 EXTRA SYMMETRY OF AOS IN SYMMETRY 2:   1 1 1 1 1 1 1 1 1 1   2 1 2 1 2 1 2 1 2 1   1 1 1 1 1 1 1 2 1 2
 EXTRA SYMMETRY OF AOS IN SYMMETRY 3:   1 1 1 1 1 1 1 1 1 1   2 1 2 1 2 1 2 1 2 1   1 1 1 1 1 1 1 2 1 2
 EXTRA SYMMETRY OF AOS IN SYMMETRY 4:   1 1 1 1 1 1 1 1 2 1   2 1 1 1 1 1
 EXTRA SYMMETRY OF AOS IN SYMMETRY 5:   1 1 1 1 1 1 1 1 1 1   1 2 1 2 1 2 1 2 1 2   1 2 1 2 1 3 2 1 3 2   1 1 1 1 1 1 1 1 1 1
                                        2 1 2 1 2 1 2 1 2
 EXTRA SYMMETRY OF AOS IN SYMMETRY 6:   1 1 1 1 1 1 1 1 1 1   2 1 2 1 2 1 2 1 2 1   1 1 1 1 1 1 1 2 1 2
 EXTRA SYMMETRY OF AOS IN SYMMETRY 7:   1 1 1 1 1 1 1 1 1 1   2 1 2 1 2 1 2 1 2 1   1 1 1 1 1 1 1 2 1 2
 EXTRA SYMMETRY OF AOS IN SYMMETRY 8:   1 1 1 1 1 1 1 1 2 1   2 1 1 1 1 1

 Eigenvalues of metric

         1 0.141E-04 0.651E-04 0.179E-03 0.359E-03 0.595E-03 0.112E-02 0.266E-02 0.335E-02
         2 0.742E-03 0.131E-02 0.257E-02 0.610E-02 0.721E-02 0.248E-01 0.655E-01 0.805E-01
         3 0.742E-03 0.131E-02 0.257E-02 0.610E-02 0.721E-02 0.248E-01 0.655E-01 0.805E-01
         4 0.832E-02 0.302E-01 0.116E+00 0.216E+00 0.243E+00 0.416E+00 0.496E+00 0.536E+00
         5 0.893E-06 0.602E-05 0.794E-05 0.181E-04 0.714E-04 0.650E-03 0.913E-03 0.119E-02
         6 0.334E-04 0.305E-03 0.700E-03 0.302E-02 0.468E-02 0.686E-02 0.171E-01 0.219E-01
         7 0.334E-04 0.305E-03 0.700E-03 0.302E-02 0.468E-02 0.686E-02 0.171E-01 0.219E-01
         8 0.119E-02 0.142E-01 0.205E-01 0.596E-01 0.708E-01 0.191E+00 0.312E+00 0.325E+00


 Contracted 2-electron integrals neglected if value below      1.0D-13
 AO integral compression algorithm  1   Integral accuracy      1.0D-13

     538.968 MB (compressed) written to integral file ( 74.6%)

     Node minimum: 34.603 MB, node maximum: 60.293 MB


 NUMBER OF SORTED TWO-ELECTRON INTEGRALS:    5739339.     BUFFER LENGTH:  32768
 NUMBER OF SEGMENTS:   1  SEGMENT LENGTH:    5739339      RECORD LENGTH: 524288

 Memory used in sort:       6.30 MW

 SORT1 READ    90292840. AND WROTE     4526710. INTEGRALS IN     13 RECORDS. CPU TIME:     3.22 SEC, REAL TIME:     4.37 SEC
 SORT2 READ    49496728. AND WROTE    63147403. INTEGRALS IN   2145 RECORDS. CPU TIME:     0.28 SEC, REAL TIME:     0.51 SEC

 Node minimum:     5696187.  Node maximum:     5798095. integrals

 OPERATOR DM      FOR CENTER  0  COORDINATES:    0.000000    0.000000    0.000000


 **********************************************************************************************************************************
 DATASETS  * FILE   NREC   LENGTH (MB)   RECORD NAMES
              1      19       20.37       500      610      700      900      950      970     1000      129      960     1100   
                                          VAR    BASINP    GEOM    SYMINP    ZMAT    AOBASIS   BASIS     P2S    ABASIS      S 
                                         1400     1410     1420     1200     1210     1080     1600     1650     1700   
                                           T        V       ECP      H0       H01     AOSYM     SMH    MOLCAS    OPER   

 PROGRAMS   *        TOTAL       INT
 CPU TIMES  *         6.23      5.79
 REAL TIME  *         9.26 SEC
 DISK USED  *         1.12 GB      
 GA USED    *         0.00 MB       (max)       0.00 MB       (current)
 **********************************************************************************************************************************


 PROGRAM * RHF-SCF (CLOSED SHELL)       Authors: W. Meyer, H.-J. Werner


 NUMBER OF ELECTRONS:       5+    5-    SPACE SYMMETRY=1    SPIN SYMMETRY: Singlet 
 CONVERGENCE THRESHOLDS:    1.00E-05 (Density)    1.00E-07 (Energy)
 MAX. NUMBER OF ITERATIONS:      100
 INTERPOLATION TYPE:            DIIS
 INTERPOLATION STEPS:              2 (START)      1 (STEP)
 LEVEL SHIFTS:                  0.00 (CLOSED)  0.00 (OPEN) 



 Orbital guess generated from atomic densities. Full valence occupancy:    3   1   1   0   3   1   1   0


 Molecular orbital dump at record        2100.2

 Initial occupancy:   2   1   1   0   1   0   0   0

 ITERATION    DDIFF          GRAD             ENERGY        2-EL.EN.            DIPOLE MOMENTS         DIIS   ORB.
    1      0.000D+00      0.000D+00       -12.10094780     37.503832    0.00000    0.00000    0.00000    0    start
    2      0.000D+00      0.805D-02       -12.11460831     36.883634    0.00000    0.00000    0.00000    1    diag
    3      0.654D-02      0.227D-02       -12.11583579     37.105932    0.00000    0.00000    0.00000    2    diag
    4      0.154D-02      0.539D-03       -12.11596416     37.070736    0.00000    0.00000    0.00000    3    diag
    5      0.599D-03      0.107D-03       -12.11596962     37.073607    0.00000    0.00000    0.00000    4    diag
    6      0.136D-03      0.177D-04       -12.11596979     37.073369    0.00000    0.00000    0.00000    5    diag
    7      0.211D-04      0.262D-05       -12.11596980     37.073341    0.00000    0.00000    0.00000    6    diag
    8      0.281D-05      0.336D-06       -12.11596980     37.073338    0.00000    0.00000    0.00000    0    orth

 Final occupancy:   2   1   1   0   1   0   0   0

 !RHF STATE 1.1 Energy                -12.115969795739
 Nuclear energy                        13.05003672
 One-electron energy                  -43.70267549
 Two-electron energy                   18.53666898
 Virial quotient                       -1.30916765
 !RHF STATE 1.1 Dipole moment           0.00000000     0.00000000     0.00000000
 Dipole moment /Debye                   0.00000000     0.00000000     0.00000000

 ELECTRON ORBITALS
 =================


   Orb  Occ    Energy  Couls-En    Coefficients

                                   1 1s      1 1s      1 1s      1 1s      1 1s      1 2pz     1 2pz     1 2pz     1 2pz     1 2pz  
                                   1 3d0     1 3d2+    1 3d0     1 3d2+    1 3d0     1 3d2+    1 3d0     1 3d2+    1 4f0     1 4f2+ 
                                   1 4f0     1 4f2+    1 4f0     1 4f2+    1 5g0     1 5g4+    1 5g2+    1 5g0     1 5g4+    1 5g2+ 
                                   2 1s      2 1s      2 1s      2 1s      2 1s      2 2pz     2 2pz     2 2pz     2 2pz     2 3d0  
                                   2 3d2+    2 3d0     2 3d2+    2 3d0     2 3d2+    2 4f0     2 4f2+    2 4f0     2 4f2+ 

   1.1   2    -1.0394   -6.1233  0.993078 -0.017738 -0.212775 -0.138618  0.008008 -0.380931  0.017856  0.091660  0.012539  0.010885
                                 0.009333  0.000000  0.032023  0.000000  0.049143 -0.000000  0.021171  0.000000 -0.002337 -0.000000
                                -0.004627  0.000000 -0.011713 -0.000000  0.002536 -0.000000 -0.000000  0.000595  0.000000  0.000000
                                 0.259482 -0.003638 -0.060782 -0.101454 -0.018822 -0.003530  0.010630 -0.004313 -0.002082 -0.001673
                                 0.000000 -0.001215  0.000000  0.000419 -0.000000  0.000052  0.000000  0.000198 -0.000000

   2.1   2    -0.6824   -4.9707  0.025929 -0.003773  0.085077 -0.022248 -0.002263  0.864990 -0.012496 -0.105839 -0.148994 -0.015269
                                -0.000724  0.000000  0.002334 -0.000000  0.004850  0.000000  0.002089 -0.000000  0.006408  0.000000
                                 0.008136 -0.000000  0.011828  0.000000 -0.001490 -0.000000  0.000000 -0.000023  0.000000 -0.000000
                                 0.796823 -0.004187 -0.105850 -0.209785 -0.031293 -0.021191 -0.016516 -0.017753 -0.005563  0.002365
                                 0.000000  0.002874  0.000000  0.001924  0.000000 -0.000012 -0.000000 -0.000606  0.000000

   3.1   0     0.0306   -1.1765 -0.066498  0.051706  0.003057 -7.626966 -8.833533 -0.054438 -0.024686 -0.584619 -3.132401 -4.483304
                                 0.001470 -0.000000 -0.032350  0.000000 -0.610187 -0.000000 -0.466635 -0.000000 -0.006719  0.000000
                                 0.011215 -0.000000 -0.060919 -0.000000 -0.004217  0.000000  0.000000 -0.002937 -0.000000 -0.000000
                                -0.086370  5.273634 10.443049  2.238926  0.005339 -2.157661 -0.606296 -0.028140  0.003878  0.096209
                                 0.000000  0.037824  0.000000 -0.000049 -0.000000 -0.004466 -0.000000 -0.003064  0.000000

                                   1 2px     1 2px     1 2px     1 2px     1 2px     1 3d1+    1 3d1+    1 3d1+    1 3d1+    1 4f1+ 
                                   1 4f3+    1 4f1+    1 4f3+    1 4f1+    1 4f3+    1 5g1+    1 5g3+    1 5g1+    1 5g3+    2 2px  
                                   2 2px     2 2px     2 2px     2 3d1+    2 3d1+    2 3d1+    2 4f1+    2 4f3+    2 4f1+    2 4f3+ 


   1.2   2    -0.4110   -4.5906  0.863894 -0.006073 -0.025125 -0.019260  0.002843 -0.007457 -0.030627 -0.013729 -0.003862  0.005561
                                -0.000000  0.009497 -0.000000  0.005928 -0.000000 -0.002664  0.000000  0.001608 -0.000000  0.001035
                                 0.003953  0.010448  0.002386  0.003119 -0.003334 -0.001528  0.000931  0.000000  0.000894  0.000000

   2.2   0     0.1065   -1.4534 -0.169530 -0.053112 -0.249543 -0.625237  1.160450  0.004487  0.015582 -0.581981  0.473414 -0.003062
                                 0.000000 -0.059966 -0.000000 -0.330842  0.000000 -0.000211  0.000000 -0.105596 -0.000000 -0.215952
                                 0.854997  0.023611 -0.000594 -0.214558 -0.076759  0.005306 -0.007844  0.000000  0.005400 -0.000000

                                   1 2py     1 2py     1 2py     1 2py     1 2py     1 3d1-    1 3d1-    1 3d1-    1 3d1-    1 4f1- 
                                   1 4f3-    1 4f1-    1 4f3-    1 4f1-    1 4f3-    1 5g1-    1 5g3-    1 5g1-    1 5g3-    2 2py  
                                   2 2py     2 2py     2 2py     2 3d1-    2 3d1-    2 3d1-    2 4f1-    2 4f3-    2 4f1-    2 4f3- 


   1.3   2    -0.4110   -4.5906  0.863894 -0.006073 -0.025125 -0.019260  0.002843 -0.007457 -0.030627 -0.013729 -0.003862  0.005561
                                 0.000000  0.009497 -0.000000  0.005928  0.000000 -0.002664 -0.000000  0.001608  0.000000  0.001035
                                 0.003953  0.010448  0.002386  0.003119 -0.003334 -0.001528  0.000931 -0.000000  0.000894 -0.000000

   2.3   0     0.1065   -1.4534 -0.169530 -0.053112 -0.249543 -0.625237  1.160450  0.004487  0.015582 -0.581981  0.473414 -0.003062
                                -0.000000 -0.059966  0.000000 -0.330842  0.000000 -0.000211 -0.000000 -0.105596  0.000000 -0.215952
                                 0.854997  0.023611 -0.000594 -0.214558 -0.076759  0.005306 -0.007844 -0.000000  0.005400  0.000000

                                   1 3d2-    1 3d2-    1 3d2-    1 3d2-    1 4f2-    1 4f2-    1 4f2-    1 5g2-    1 5g4-    1 5g2- 
                                   1 5g4-    2 3d2-    2 3d2-    2 3d2-    2 4f2-    2 4f2- 

   1.4   0     0.2781   -1.6706 -0.005405  0.068405 -0.119873  0.914510  0.006192 -0.038941  0.171933 -0.007313 -0.000000  0.013169
                                 0.000000 -0.172429  0.029033 -0.003885  0.000833 -0.002429

                                   1 1s      1 1s      1 1s      1 1s      1 1s      1 2pz     1 2pz     1 2pz     1 2pz     1 2pz  
                                   1 3d0     1 3d2+    1 3d0     1 3d2+    1 3d0     1 3d2+    1 3d0     1 3d2+    1 4f0     1 4f2+ 
                                   1 4f0     1 4f2+    1 4f0     1 4f2+    1 5g0     1 5g4+    1 5g2+    1 5g0     1 5g4+    1 5g2+ 
                                   2 1s      2 1s      2 1s      2 1s      2 1s      2 2pz     2 2pz     2 2pz     2 2pz     2 3d0  
                                   2 3d2+    2 3d0     2 3d2+    2 3d0     2 3d2+    2 4f0     2 4f2+    2 4f0     2 4f2+ 

   1.5   2    -0.7708   -4.8908  0.657356 -0.011153 -0.043674  0.164436 -0.074113  0.441172 -0.007668  0.013595 -0.159522  0.009347
                                 0.005374  0.000000  0.022586 -0.000000  0.035074  0.000000  0.007004 -0.000000  0.002351 -0.000000
                                 0.007107  0.000000  0.007764  0.000000  0.001469 -0.000000  0.000000  0.001464  0.000000  0.000000
                                 0.791253 -0.007890 -0.128983 -0.271206 -0.047004 -0.011349  0.003581 -0.015200 -0.005602  0.000060
                                -0.000000  0.002758 -0.000000  0.001690  0.000000 -0.000950  0.000000 -0.000607 -0.000000

   2.5   0     0.0367   -1.0549 -0.088717 -0.034699  1.088992  8.873848 54.307365 -0.056864  0.051466 -0.630786-10.858261-19.442854
                                -0.000656  0.000000  0.029778 -0.000000 -0.100358 -0.000000  0.458861  0.000000 -0.001906 -0.000000
                                -0.044863  0.000000 -0.359705  0.000000 -0.002722  0.000000  0.000000 -0.042178 -0.000000 -0.000000
                                -0.026052  9.347760 10.763709  1.478523  0.124328 -1.525855  0.087700 -0.040454  0.003850 -0.115143
                                 0.000000 -0.014855  0.000000  0.001647 -0.000000  0.005292 -0.000000  0.002193  0.000000

                                   1 2px     1 2px     1 2px     1 2px     1 2px     1 3d1+    1 3d1+    1 3d1+    1 3d1+    1 4f1+ 
                                   1 4f3+    1 4f1+    1 4f3+    1 4f1+    1 4f3+    1 5g1+    1 5g3+    1 5g1+    1 5g3+    2 2px  
                                   2 2px     2 2px     2 2px     2 3d1+    2 3d1+    2 3d1+    2 4f1+    2 4f3+    2 4f1+    2 4f3+ 


   1.6   0     0.1005   -1.5596  0.261163 -0.035163  0.145610  9.249221  4.505053  0.001445  0.032854  0.056872 -5.468389  0.001545
                                 0.000000 -0.011980 -0.000000  0.358391  0.000000  0.001606  0.000000  0.016913  0.000000  1.889154
                                -0.289480  0.014584  0.001187  0.077541  0.012832 -0.001162  0.002223 -0.000000 -0.001653  0.000000

                                   1 2py     1 2py     1 2py     1 2py     1 2py     1 3d1-    1 3d1-    1 3d1-    1 3d1-    1 4f1- 
                                   1 4f3-    1 4f1-    1 4f3-    1 4f1-    1 4f3-    1 5g1-    1 5g3-    1 5g1-    1 5g3-    2 2py  
                                   2 2py     2 2py     2 2py     2 3d1-    2 3d1-    2 3d1-    2 4f1-    2 4f3-    2 4f1-    2 4f3- 


   1.7   0     0.1005   -1.5596  0.261163 -0.035163  0.145610  9.249221  4.505053  0.001445  0.032854  0.056872 -5.468389  0.001545
                                 0.000000 -0.011980  0.000000  0.358391 -0.000000  0.001606 -0.000000  0.016913 -0.000000  1.889154
                                -0.289480  0.014584  0.001187  0.077541  0.012832 -0.001162  0.002223  0.000000 -0.001653 -0.000000

                                   1 3d2-    1 3d2-    1 3d2-    1 3d2-    1 4f2-    1 4f2-    1 4f2-    1 5g2-    1 5g4-    1 5g2- 
                                   1 5g4-    2 3d2-    2 3d2-    2 3d2-    2 4f2-    2 4f2- 

   1.8   0     0.3402   -1.1857  0.003422 -0.007472  1.246893  3.779789  0.002197 -0.126236 -2.280416 -0.010196 -0.000000  0.147561
                                 0.000000  0.834529 -0.043902  0.003909 -0.082935  0.011786

 HOMO      1.2    -0.411049 =     -11.1852eV
 LUMO      3.1     0.030586 =       0.8323eV
 LUMO-HOMO         0.441635 =      12.0175eV


 **********************************************************************************************************************************
 DATASETS  * FILE   NREC   LENGTH (MB)   RECORD NAMES
              1      19       20.38       500      610      700      900      950      970     1000      129      960     1100   
                                          VAR    BASINP    GEOM    SYMINP    ZMAT    AOBASIS   BASIS     P2S    ABASIS      S 
                                         1400     1410     1420     1200     1210     1080     1600     1650     1700   
                                           T        V       ECP      H0       H01     AOSYM     SMH    MOLCAS    OPER   

              2       4        3.03       700     1000      520     2100   
                                         GEOM     BASIS   MCVARS     RHF  

 PROGRAMS   *        TOTAL       RHF       INT
 CPU TIMES  *         6.61      0.38      5.79
 REAL TIME  *         9.82 SEC
 DISK USED  *         1.39 GB      
 SF USED    *         0.04 MB      
 GA USED    *         0.00 MB       (max)       0.00 MB       (current)
 **********************************************************************************************************************************
 SETTING SCF(I)         =       -12.11596980  AU                              
 SETTING _CC_NORM_MAX   =         2.00000000                                  


 PROGRAM * CCSD (Unrestricted open-shell coupled cluster)     Authors: C. Hampel, H.-J. Werner, 1991, M. Deegan, P.J. Knowles, 1992


 Convergence thresholds:  THRVAR = 1.00D-08  THRDEN = 1.00D-06

 CCSD(T)     terms to be evaluated (factor= 1.000)


 Number of closed-shell orbitals:   5 (   2   1   1   0   1   0   0   0 )
 Number of external orbitals:     245 (  47  29  29  16  48  30  30  16 )

 Memory could be reduced to 22.75 Mwords without degradation in triples

 Number of N-1 electron functions:              10
 Number of N-2 electron functions:              45
 Number of singly external CSFs:               400
 Number of doubly external CSFs:            273281
 Total number of CSFs:                      273681

 Molecular orbitals read from record     2100.2  Type=RHF/CANONICAL (state 1.1)

 Integral transformation finished. Total CPU:   0.56 sec, npass=  1  Memory used:   3.49 MW

 Starting RMP2 calculation

 ITER.      SQ.NORM     CORR.ENERGY   TOTAL ENERGY   ENERGY CHANGE        DEN1      VAR(S)    VAR(P)  DIIS     TIME
   1      1.11849917    -0.32864925   -12.44461905    -0.32864925    -0.00048721  0.41D-13  0.26D-03  1  1     0.65
   2      1.11908263    -0.32915932   -12.44512911    -0.00051006    -0.00000024  0.23D-15  0.16D-06  2  2     0.99
   3      1.11909285    -0.32916438   -12.44513418    -0.00000506    -0.00000000  0.16D-17  0.66D-10  3  3     1.01
   4      1.11909291    -0.32916439   -12.44513419    -0.00000001    -0.00000000  0.16D-19  0.33D-13  4  4     1.03

 Norm of t1 vector:      0.00000220      S-energy:    -0.00000000      T1 diagnostic:  0.00000049
 Norm of t2 vector:      0.34509841      P-energy:    -0.32916439
                                         Alpha-Beta:  -0.25752437
                                         Alpha-Alpha: -0.03582001
                                         Beta-Beta:   -0.03582001

 Spin contamination <S**2-Sz**2-Sz>     0.00000000
  Reference energy                    -12.115969795739
  RHF-RMP2 correlation energy          -0.329164390374
 !RHF-RMP2 energy                     -12.445134186113

 Starting UCCSD calculation

 ITER.      SQ.NORM     CORR.ENERGY   TOTAL ENERGY   ENERGY CHANGE        DEN1      VAR(S)    VAR(P)  DIIS     TIME
   1      1.11938062    -0.32668438   -12.44265417    -0.32668438    -0.00993987  0.20D-02  0.22D-02  1  1     1.35
   2      1.12959153    -0.33590677   -12.45187656    -0.00922239    -0.00102800  0.36D-04  0.45D-03  2  2     1.50
   3      1.13426928    -0.33798222   -12.45395202    -0.00207546    -0.00010741  0.11D-04  0.52D-04  3  3     1.66
   4      1.13643266    -0.33870945   -12.45467924    -0.00072722    -0.00000913  0.36D-06  0.48D-05  4  4     1.81
   5      1.13691034    -0.33879834   -12.45476814    -0.00008889    -0.00000065  0.50D-07  0.30D-06  5  5     1.97
   6      1.13697592    -0.33880813   -12.45477793    -0.00000979    -0.00000005  0.39D-08  0.21D-07  6  6     2.13
   7      1.13698121    -0.33880917   -12.45477897    -0.00000104    -0.00000000  0.53D-09  0.18D-08  7  7     2.29
   8      1.13698105    -0.33880897   -12.45477876     0.00000020    -0.00000000  0.75D-10  0.12D-09  8  8     2.46

 Norm of t1 vector:      0.05929976      S-energy:    -0.00000001      T1 diagnostic:  0.01325983
                                                                       D1 diagnostic:  0.02842124
 Norm of t2 vector:      0.36532806      P-energy:    -0.33880896
                                         Alpha-Beta:  -0.27679235
                                         Alpha-Alpha: -0.03100830
                                         Beta-Beta:   -0.03100830

 Doubles amplitudes (print threshold =  0.500E-01):

         I         J         SYM. A    SYM. B    A         B      T(IJ, AB) [Alpha-Beta]

         3         3         6         6         2         2     -0.06156308
         4         4         7         7         2         2     -0.06156308

 Spin contamination <S**2-Sz**2-Sz>     0.00000000

 Memory could be reduced to 22.65 Mwords without degradation in triples
 

 RESULTS
 =======

  Reference energy                    -12.115969795739
  UCCSD singles energy                 -0.000000009344
  UCCSD pair energy                    -0.338808959314
  UCCSD correlation energy             -0.338808968658
  Triples (T) contribution             -0.017629306111
  Total correlation energy             -0.356438274770
 
  RHF-UCCSD energy                    -12.454778764397
  RHF-UCCSD[T] energy                 -12.472995724601
  RHF-UCCSD-T energy                  -12.472136541348
 !RHF-UCCSD(T) energy                 -12.472408070509

 Program statistics:

 Available memory in ccsd:               999999650
 Min. memory needed in ccsd:                969356
 Max. memory used in ccsd:                 1277101
 Max. memory used in cckext:               1050811 ( 8 integral passes)
 Max. memory used in cckint:               3490999 ( 1 integral passes)



 **********************************************************************************************************************************
 DATASETS  * FILE   NREC   LENGTH (MB)   RECORD NAMES
              1      19       20.38       500      610      700      900      950      970     1000      129      960     1100   
                                          VAR    BASINP    GEOM    SYMINP    ZMAT    AOBASIS   BASIS     P2S    ABASIS      S 
                                         1400     1410     1420     1200     1210     1080     1600     1650     1700   
                                           T        V       ECP      H0       H01     AOSYM     SMH    MOLCAS    OPER   

              2       4        3.03       700     1000      520     2100   
                                         GEOM     BASIS   MCVARS     RHF  

 PROGRAMS   *        TOTAL  UCCSD(T)       RHF       INT
 CPU TIMES  *        11.05      4.44      0.38      5.79
 REAL TIME  *        16.84 SEC
 DISK USED  *         1.88 GB      
 SF USED    *       255.60 MB      
 GA USED    *         0.00 MB       (max)       0.00 MB       (current)
 **********************************************************************************************************************************
 SETTING CCSD(I)        =       -12.47240807  AU                              
                                                                                                                                                                                                                                                                

        SCF            CCSD
    -12.11596980   -12.47240807
                                                  

 UCCSD(T)/USERDEF energy=    -12.472408070509

        UCCSD(T)        RHF-SCF 
    -12.47240807    -12.11596980
 **********************************************************************************************************************************
 Molpro calculation terminated
 Variable memory released
