
 Primary working directories    : /global/cscratch1/sd/aannabe
 Secondary working directories  : /global/cscratch1/sd/aannabe
 Wavefunction directory         : /global/homes/a/aannabe/wfu/
 Main file repository           : /global/cscratch1/sd/aannabe/

 SHA1      : 19cd028119e0e09f93f0674bd8af7968d9b3eff6
 NAME      : 2015.1.36
 ARCHNAME  : linux/x86_64
 FC        : /opt/cray/pe/craype/2.5.14/bin/ftn
 BLASLIB   : -L/opt/intel/compilers_and_libraries_2018.1.163/linux/mkl/lib/intel64 -Wl,-_start-group -lmkl_intel_ilp64 -lmkl_intel_thread -lmkl_core -Wl,-_end-group -liomp5
 id        : lbl

 Nodes     nprocs
 nid00746    11
 Number of processes for MPI-2 version of Molpro:   nprocs(total)=   12   nprocs(compute)=   11   nprocs(helper)=    1

 Using customized tuning parameters: mindgm=7; mindgv=16; mindgc=1; mindgr=1; noblas=0; minvec=7
 default implementation of scratch files=sf  

 ***,Calculation of O
 memory,1,g
 
 gthresh,oneint=1.0E-13
 gthresh,twoint=1.0E-13
 
                                                                                 !set,dkroll=1,dkho=99,dkhp=2
 
 geometry={
    4
    C2H2
    C  0.0000  0.0000  0.6013
    C  0.0000  0.0000 -0.6013
    H  0.0000  0.0000  1.6644
    H  0.0000  0.0000 -1.6644
 }
 
 basis={
 Including file /global/cscratch1/sd/aannabe/repos/pseudopotentiallibrary/recipes/C/ccECP/C.ccECP.molpro
 Including file /global/cscratch1/sd/aannabe/repos/pseudopotentiallibrary/recipes/H/ccECP/H.ccECP.molpro
 
 Including file /global/cscratch1/sd/aannabe/repos/pseudopotentiallibrary/recipes/C/ccECP/C.aug-cc-pV5Z.molpro
 Including file /global/cscratch1/sd/aannabe/repos/pseudopotentiallibrary/recipes/H/ccECP/H.aug-cc-pV5Z.molpro
 }
 
 {rhf,nitord=30;
  maxit,100;
  wf,10,1,0
  print,orbitals=1
 }
 
 scf(i)=energy
 _CC_NORM_MAX=2.0
 {uccsd(t),shifts=0.1,shiftp=0.1,thrdis=1.0;diis,1,1,15,1;maxit,100;core}
 ccsd(i)=energy
 
 table,scf,ccsd
 save, 5.csv, new
 

 Variables initialized (889), CPU time= 0.01 sec
 Commands  initialized (702), CPU time= 0.01 sec, 572 directives.
 Default parameters read. Elapsed time= 0.17 sec

 Checking input...
 Passed
1


                                         ***  PROGRAM SYSTEM MOLPRO  ***
                                       Copyright, TTI GmbH Stuttgart, 2015
                                    Version 2015.1 linked Dec 29 2018 15:55:43


 **********************************************************************************************************************************
 LABEL *   Calculation of O                                                              
  64 bit mpp version                                                                     DATE: 02-Aug-21          TIME: 11:27:10  
 **********************************************************************************************************************************

 SHA1:             19cd028119e0e09f93f0674bd8af7968d9b3eff6
 **********************************************************************************************************************************

 THRESHOLDS:

 ZERO    =  1.00D-12  ONEINT  =  1.00D-13  TWOINT  =  1.00D-11  PREFAC  =  1.00D-14  LOCALI  =  1.00D-09  EORDER  =  1.00D-04
 ENERGY  =  0.00D+00  ETEST   =  0.00D+00  EDENS   =  0.00D+00  THRDEDEF=  1.00D-06  GRADIENT=  1.00D-02  STEP    =  1.00D-03
 ORBITAL =  1.00D-05  CIVEC   =  1.00D-05  COEFF   =  1.00D-04  PRINTCI =  5.00D-02  PUNCHCI =  9.90D+01  OPTGRAD =  3.00D-04
 OPTENERG=  1.00D-06  OPTSTEP =  3.00D-04  THRGRAD =  1.00D-10  COMPRESS=  1.00D-11  VARMIN  =  1.00D-07  VARMAX  =  1.00D-03
 THRDOUB =  0.00D+00  THRDIV  =  1.00D-05  THRRED  =  1.00D-07  THRPSP  =  1.00D+00  THRDC   =  1.00D-10  THRCS   =  1.00D-10
 THRNRM  =  1.00D-08  THREQ   =  0.00D+00  THRDE   =  1.00D+00  THRREF  =  1.00D-05  SPARFAC =  1.00D+00  THRDLP  =  1.00D-07
 THRDIA  =  1.00D-10  THRDLS  =  1.00D-07  THRGPS  =  0.00D+00  THRKEX  =  0.00D+00  THRDIS  =  2.00D-01  THRVAR  =  1.00D-10
 THRLOC  =  1.00D-06  THRGAP  =  1.00D-06  THRLOCT = -1.00D+00  THRGAPT = -1.00D+00  THRORB  =  1.00D-06  THRMLTP =  0.00D+00
 THRCPQCI=  1.00D-10  KEXTA   =  0.00D+00  THRCOARS=  0.00D+00  SYMTOL  =  1.00D-06  GRADTOL =  1.00D-06  THROVL  =  1.00D-08
 THRORTH =  1.00D-08  GRID    =  1.00D-06  GRIDMAX =  1.00D-03  DTMAX   =  0.00D+00  THROCCDE=  1.00D-01  THROCCDE=  1.00D-01



 THRESHOLDS:

 ZERO    =  1.00D-12  ONEINT  =  1.00D-13  TWOINT  =  1.00D-13  PREFAC  =  1.00D-14  LOCALI  =  1.00D-09  EORDER  =  1.00D-04
 ENERGY  =  0.00D+00  ETEST   =  0.00D+00  EDENS   =  0.00D+00  THRDEDEF=  1.00D-06  GRADIENT=  1.00D-02  STEP    =  1.00D-03
 ORBITAL =  1.00D-05  CIVEC   =  1.00D-05  COEFF   =  1.00D-04  PRINTCI =  5.00D-02  PUNCHCI =  9.90D+01  OPTGRAD =  3.00D-04
 OPTENERG=  1.00D-06  OPTSTEP =  3.00D-04  THRGRAD =  1.00D-10  COMPRESS=  1.00D-11  VARMIN  =  1.00D-07  VARMAX  =  1.00D-03
 THRDOUB =  0.00D+00  THRDIV  =  1.00D-05  THRRED  =  1.00D-07  THRPSP  =  1.00D+00  THRDC   =  1.00D-10  THRCS   =  1.00D-10
 THRNRM  =  1.00D-08  THREQ   =  0.00D+00  THRDE   =  1.00D+00  THRREF  =  1.00D-05  SPARFAC =  1.00D+00  THRDLP  =  1.00D-07
 THRDIA  =  1.00D-10  THRDLS  =  1.00D-07  THRGPS  =  0.00D+00  THRKEX  =  0.00D+00  THRDIS  =  2.00D-01  THRVAR  =  1.00D-10
 THRLOC  =  1.00D-06  THRGAP  =  1.00D-06  THRLOCT = -1.00D+00  THRGAPT = -1.00D+00  THRORB  =  1.00D-06  THRMLTP =  0.00D+00
 THRCPQCI=  1.00D-10  KEXTA   =  0.00D+00  THRCOARS=  0.00D+00  SYMTOL  =  1.00D-06  GRADTOL =  1.00D-06  THROVL  =  1.00D-08
 THRORTH =  1.00D-08  GRID    =  1.00D-06  GRIDMAX =  1.00D-03  DTMAX   =  0.00D+00  THROCCDE=  1.00D-01  THROCCDE=  1.00D-01



Geometry recognized as XYZ


 Variable memory set to 1000000000 words,  buffer space   230000 words

 SETTING BASIS          =    USERDEF


 Recomputing integrals since basis changed


 Using spherical harmonics



 PROGRAM * SEWARD (Integral evaluation for generally contracted gaussian basis sets)     Author: Roland Lindh, 1990

 Geometry written to block  1 of record 700


 Point group  D2h 



 ATOMIC COORDINATES

 NR  ATOM    CHARGE       X              Y              Z

   1  C       4.00    0.000000000    0.000000000    1.136292319
   2  C       4.00    0.000000000    0.000000000   -1.136292319
   3  H       1.00    0.000000000    0.000000000    3.145260162
   4  H       1.00    0.000000000    0.000000000   -3.145260162

 Bond lengths in Bohr (Angstrom)

 1-2  2.272584637  1-3  2.008967843  2-4  2.008967843
     ( 1.202600000)     ( 1.063100000)     ( 1.063100000)

 Bond angles

  1-2-4  180.00000000   2-1-3  180.00000000

 NUCLEAR CHARGE:                   10
 NUMBER OF PRIMITIVE AOS:         650
 NUMBER OF SYMMETRY AOS:          490
 NUMBER OF CONTRACTIONS:          412   (  76Ag  +  50B3u +  50B2u +  30B1g +  76B1u +  50B2g +  50B3g +  30Au  )
 NUMBER OF CORE ORBITALS:           0   (   0Ag  +   0B3u +   0B2u +   0B1g +   0B1u +   0B2g +   0B3g +   0Au  )
 NUMBER OF VALENCE ORBITALS:       10   (   3Ag  +   1B3u +   1B2u +   0B1g +   3B1u +   1B2g +   1B3g +   0Au  )


 NUCLEAR REPULSION ENERGY   13.05003672

 EXTRA SYMMETRY OF AOS IN SYMMETRY 1:   1 1 1 1 1 1 1 1 1 1   1 1 1 2 1 2 1 2 1 2   1 2 1 2 1 2 1 2 1 2   1 3 2 1 3 2 1 3 2 2
                                        3 1 2 3 1 1 1 1 1 1   1 1 1 1 1 1 1 2 1 2   1 2 1 2 1 2 1 2 1 2   1 3 2 1 3 2
 EXTRA SYMMETRY OF AOS IN SYMMETRY 2:   1 1 1 1 1 1 1 1 1 1   1 1 2 1 2 1 2 1 2 1   2 1 2 1 2 1 2 3 1 2   3 1 1 1 1 1 1 1 1 1
                                        1 2 1 2 1 2 1 2 1 2
 EXTRA SYMMETRY OF AOS IN SYMMETRY 3:   1 1 1 1 1 1 1 1 1 1   1 1 2 1 2 1 2 1 2 1   2 1 2 1 2 1 2 3 1 2   3 1 1 1 1 1 1 1 1 1
                                        1 2 1 2 1 2 1 2 1 2
 EXTRA SYMMETRY OF AOS IN SYMMETRY 4:   1 1 1 1 1 1 1 1 1 1   2 1 2 1 2 2 1 2 1 1   1 1 1 1 1 1 1 2 1 2
 EXTRA SYMMETRY OF AOS IN SYMMETRY 5:   1 1 1 1 1 1 1 1 1 1   1 1 1 2 1 2 1 2 1 2   1 2 1 2 1 2 1 2 1 2   1 3 2 1 3 2 1 3 2 2
                                        3 1 2 3 1 1 1 1 1 1   1 1 1 1 1 1 1 2 1 2   1 2 1 2 1 2 1 2 1 2   1 3 2 1 3 2
 EXTRA SYMMETRY OF AOS IN SYMMETRY 6:   1 1 1 1 1 1 1 1 1 1   1 1 2 1 2 1 2 1 2 1   2 1 2 1 2 1 2 3 1 2   3 1 1 1 1 1 1 1 1 1
                                        1 2 1 2 1 2 1 2 1 2
 EXTRA SYMMETRY OF AOS IN SYMMETRY 7:   1 1 1 1 1 1 1 1 1 1   1 1 2 1 2 1 2 1 2 1   2 1 2 1 2 1 2 3 1 2   3 1 1 1 1 1 1 1 1 1
                                        1 2 1 2 1 2 1 2 1 2
 EXTRA SYMMETRY OF AOS IN SYMMETRY 8:   1 1 1 1 1 1 1 1 1 1   2 1 2 1 2 2 1 2 1 1   1 1 1 1 1 1 1 2 1 2

 Eigenvalues of metric

         1 0.171E-05 0.108E-04 0.271E-04 0.390E-04 0.783E-04 0.204E-03 0.260E-03 0.449E-03
         2 0.107E-03 0.201E-03 0.341E-03 0.591E-03 0.878E-03 0.196E-02 0.349E-02 0.565E-02
         3 0.107E-03 0.201E-03 0.341E-03 0.591E-03 0.878E-03 0.196E-02 0.349E-02 0.565E-02
         4 0.712E-03 0.385E-02 0.873E-02 0.102E-01 0.143E-01 0.510E-01 0.870E-01 0.894E-01
         5 0.443E-06 0.152E-05 0.228E-05 0.431E-05 0.632E-05 0.356E-04 0.820E-04 0.194E-03
         6 0.524E-05 0.487E-04 0.580E-04 0.119E-03 0.217E-03 0.923E-03 0.148E-02 0.190E-02
         7 0.524E-05 0.487E-04 0.580E-04 0.119E-03 0.217E-03 0.923E-03 0.148E-02 0.190E-02
         8 0.194E-03 0.426E-03 0.129E-02 0.279E-02 0.105E-01 0.156E-01 0.224E-01 0.400E-01


 Contracted 2-electron integrals neglected if value below      1.0D-13
 AO integral compression algorithm  1   Integral accuracy      1.0D-13

     3272.606 MB (compressed) written to integral file ( 66.0%)

     Node minimum: 243.794 MB, node maximum: 340.525 MB


 NUMBER OF SORTED TWO-ELECTRON INTEGRALS:   41716184.     BUFFER LENGTH:  32768
 NUMBER OF SEGMENTS:   2  SEGMENT LENGTH:   31994264      RECORD LENGTH: 524288

 Memory used in sort:      32.55 MW

 SORT1 READ   619522400. AND WROTE    30690637. INTEGRALS IN     89 RECORDS. CPU TIME:    26.80 SEC, REAL TIME:    28.70 SEC
 SORT2 READ   336513341. AND WROTE   459006125. INTEGRALS IN  13112 RECORDS. CPU TIME:     4.73 SEC, REAL TIME:     8.25 SEC

 Node minimum:    41678136.  Node maximum:    41841583. integrals

 OPERATOR DM      FOR CENTER  0  COORDINATES:    0.000000    0.000000    0.000000


 **********************************************************************************************************************************
 DATASETS  * FILE   NREC   LENGTH (MB)   RECORD NAMES
              1      19       21.03       500      610      700      900      950      970     1000      129      960     1100   
                                          VAR    BASINP    GEOM    SYMINP    ZMAT    AOBASIS   BASIS     P2S    ABASIS      S 
                                         1400     1410     1420     1200     1210     1080     1600     1650     1700   
                                           T        V       ECP      H0       H01     AOSYM     SMH    MOLCAS    OPER   

 PROGRAMS   *        TOTAL       INT
 CPU TIMES  *        48.51     47.82
 REAL TIME  *        56.93 SEC
 DISK USED  *         7.30 GB      
 GA USED    *         0.00 MB       (max)       0.00 MB       (current)
 **********************************************************************************************************************************


 PROGRAM * RHF-SCF (CLOSED SHELL)       Authors: W. Meyer, H.-J. Werner


 NUMBER OF ELECTRONS:       5+    5-    SPACE SYMMETRY=1    SPIN SYMMETRY: Singlet 
 CONVERGENCE THRESHOLDS:    1.00E-05 (Density)    1.00E-07 (Energy)
 MAX. NUMBER OF ITERATIONS:      100
 INTERPOLATION TYPE:            DIIS
 INTERPOLATION STEPS:              2 (START)      1 (STEP)
 LEVEL SHIFTS:                  0.00 (CLOSED)  0.00 (OPEN) 



 Orbital guess generated from atomic densities. Full valence occupancy:    3   1   1   0   3   1   1   0


 Molecular orbital dump at record        2100.2

 Initial occupancy:   2   1   1   0   1   0   0   0

 ITERATION    DDIFF          GRAD             ENERGY        2-EL.EN.            DIPOLE MOMENTS         DIIS   ORB.
    1      0.000D+00      0.000D+00       -12.10086409     37.511693    0.00000    0.00000    0.00000    0    start
    2      0.000D+00      0.639D-02       -12.11460785     36.881249    0.00000    0.00000    0.00000    1    diag
    3      0.592D-02      0.181D-02       -12.11585108     37.105846    0.00000    0.00000    0.00000    2    diag
    4      0.924D-03      0.426D-03       -12.11597969     37.070704    0.00000    0.00000    0.00000    3    diag
    5      0.416D-03      0.847D-04       -12.11598521     37.073536    0.00000    0.00000    0.00000    4    diag
    6      0.740D-04      0.140D-04       -12.11598538     37.073301    0.00000    0.00000    0.00000    5    diag
    7      0.131D-04      0.206D-05       -12.11598539     37.073272    0.00000    0.00000    0.00000    6    diag
    8      0.161D-05      0.265D-06       -12.11598539     37.073269    0.00000    0.00000    0.00000    0    orth

 Final occupancy:   2   1   1   0   1   0   0   0

 !RHF STATE 1.1 Energy                -12.115985386968
 Nuclear energy                        13.05003672
 One-electron energy                  -43.70265655
 Two-electron energy                   18.53663445
 Virial quotient                       -1.30902641
 !RHF STATE 1.1 Dipole moment           0.00000000     0.00000000     0.00000000
 Dipole moment /Debye                   0.00000000     0.00000000     0.00000000

 ELECTRON ORBITALS
 =================


   Orb  Occ    Energy  Couls-En    Coefficients

                                   1 1s      1 1s      1 1s      1 1s      1 1s      1 1s      1 2pz     1 2pz     1 2pz     1 2pz  
                                   1 2pz     1 2pz     1 3d0     1 3d2+    1 3d0     1 3d2+    1 3d0     1 3d2+    1 3d0     1 3d2+ 
                                   1 3d0     1 3d2+    1 4f0     1 4f2+    1 4f0     1 4f2+    1 4f0     1 4f2+    1 4f0     1 4f2+ 
                                   1 5g0     1 5g4+    1 5g2+    1 5g0     1 5g4+    1 5g2+    1 5g0     1 5g4+    1 5g2+    1 6h2+ 
                                   1 6h4+    1 6h0     1 6h2+    1 6h4+    1 6h0     2 1s      2 1s      2 1s      2 1s      2 1s   
                                   2 1s      2 2pz     2 2pz     2 2pz     2 2pz     2 2pz     2 3d0     2 3d2+    2 3d0     2 3d2+ 
                                   2 3d0     2 3d2+    2 3d0     2 3d2+    2 4f0     2 4f2+    2 4f0     2 4f2+    2 4f0     2 4f2+ 
                                   2 5g0     2 5g4+    2 5g2+    2 5g0     2 5g4+    2 5g2+ 

   1.1   2    -1.0394   -6.1234  0.996345  0.018339 -0.075754 -0.216946 -0.099822  0.022668 -0.382688  0.005605  0.070712  0.041402
                                 0.005174  0.009970  0.023277 -0.000000 -0.025644  0.000000  0.066323 -0.000000  0.054270  0.000000
                                 0.020633 -0.000000 -0.001676 -0.000000  0.000162  0.000000 -0.016247  0.000000 -0.010312  0.000000
                                 0.000776 -0.000000  0.000000  0.004652  0.000000  0.000000  0.005847 -0.000000  0.000000  0.000000
                                 0.000000 -0.000151  0.000000  0.000000 -0.001155  0.263065 -0.006680 -0.054627 -0.101198 -0.055450
                                -0.003804 -0.000964  0.011341  0.010490 -0.002790 -0.000748 -0.001491 -0.000000 -0.010394 -0.000000
                                -0.002092  0.000000  0.000658 -0.000000  0.003103  0.000000  0.001002  0.000000 -0.000088 -0.000000
                                -0.000181  0.000000 -0.000000 -0.000311 -0.000000 -0.000000

   2.1   2    -0.6824   -4.9707  0.023259 -0.021906  0.058149  0.070997 -0.029166 -0.006383  0.871220 -0.014170 -0.066229 -0.065466
                                -0.091533 -0.009843 -0.001158 -0.000000  0.003286 -0.000000 -0.010138  0.000000 -0.018276  0.000000
                                 0.000787  0.000000  0.001466 -0.000000  0.004719  0.000000  0.033459  0.000000  0.017602  0.000000
                                -0.000705 -0.000000 -0.000000 -0.001757  0.000000  0.000000 -0.005684 -0.000000  0.000000  0.000000
                                 0.000000  0.001801  0.000000 -0.000000  0.005333  0.808888  0.000640 -0.066815 -0.197748 -0.074347
                                -0.022053 -0.019641 -0.040643 -0.032635 -0.004820 -0.001618  0.006888 -0.000000  0.014571 -0.000000
                                 0.005374  0.000000  0.000165 -0.000000 -0.003869  0.000000 -0.001881  0.000000 -0.000146 -0.000000
                                 0.000562 -0.000000 -0.000000  0.000273 -0.000000 -0.000000

   3.1   0     0.0271   -1.1386 -0.059654 -0.107754  0.421469 -0.633468-11.200888-14.516248 -0.052052  0.031450 -0.592358 -1.372534
                                -3.024194 -6.460890 -0.023183 -0.000000  0.137846  0.000000 -0.379408 -0.000000 -1.620613 -0.000000
                                -1.433861 -0.000000  0.004576  0.000000 -0.021405 -0.000000  0.037211 -0.000000  0.065788 -0.000000
                                 0.002540 -0.000000  0.000000 -0.041618  0.000000 -0.000000 -0.079401 -0.000000 -0.000000 -0.000000
                                -0.000000  0.001686 -0.000000  0.000000 -0.015168 -0.061869  7.570192 14.869937  5.940461  0.870719
                                -0.030313 -2.943295 -1.581082 -0.257951  0.000948  0.000496  0.272111  0.000000  0.222222  0.000000
                                 0.023031 -0.000000 -0.001557  0.000000 -0.067426 -0.000000 -0.008155 -0.000000  0.000814  0.000000
                                 0.004778 -0.000000  0.000000 -0.000708  0.000000 -0.000000

                                   1 2px     1 2px     1 2px     1 2px     1 2px     1 2px     1 3d1+    1 3d1+    1 3d1+    1 3d1+ 
                                   1 3d1+    1 4f1+    1 4f3+    1 4f1+    1 4f3+    1 4f1+    1 4f3+    1 4f1+    1 4f3+    1 5g1+ 
                                   1 5g3+    1 5g1+    1 5g3+    1 5g1+    1 5g3+    1 6h1+    1 6h3+    1 6h5+    1 6h1+    1 6h3+ 
                                   1 6h5+    2 2px     2 2px     2 2px     2 2px     2 2px     2 3d1+    2 3d1+    2 3d1+    2 3d1+ 
                                   2 4f1+    2 4f3+    2 4f1+    2 4f3+    2 4f1+    2 4f3+    2 5g1+    2 5g3+    2 5g1+    2 5g3+ 


   1.2   2    -0.4111   -4.5906  0.868328 -0.004660 -0.023344 -0.039834 -0.022909  0.001170 -0.016616  0.013555 -0.045305 -0.009989
                                -0.016504  0.002846 -0.000000  0.001913  0.000000  0.013554 -0.000000  0.010308 -0.000000 -0.001240
                                 0.000000 -0.002946 -0.000000  0.005275 -0.000000  0.000784  0.000000  0.000000  0.003329 -0.000000
                                -0.000000  0.018127  0.009258  0.008483  0.003341  0.000718 -0.006034 -0.011522 -0.002863 -0.000160
                                 0.006551  0.000000  0.002093 -0.000000 -0.000075  0.000000 -0.001094 -0.000000 -0.000215  0.000000

   2.2   0     0.0810   -1.3194 -0.169389  0.016876 -0.032951  0.178809 -1.517153  1.143554 -0.026431  0.111481 -0.348101  0.259136
                                -0.145156  0.002792 -0.000000 -0.014086  0.000000 -0.189619  0.000000 -0.578497 -0.000000 -0.004865
                                 0.000000 -0.000511 -0.000000  0.182111 -0.000000 -0.004228  0.000000 -0.000000  0.006777 -0.000000
                                -0.000000  0.639036  0.769449 -0.035300  0.008393 -0.002084 -0.180053 -0.268633  0.002572 -0.000596
                                 0.132096  0.000000  0.021742 -0.000000 -0.002781  0.000000 -0.024064 -0.000000  0.000285  0.000000

                                   1 2py     1 2py     1 2py     1 2py     1 2py     1 2py     1 3d1-    1 3d1-    1 3d1-    1 3d1- 
                                   1 3d1-    1 4f1-    1 4f3-    1 4f1-    1 4f3-    1 4f1-    1 4f3-    1 4f1-    1 4f3-    1 5g1- 
                                   1 5g3-    1 5g1-    1 5g3-    1 5g1-    1 5g3-    1 6h1-    1 6h3-    1 6h5-    1 6h1-    1 6h3- 
                                   1 6h5-    2 2py     2 2py     2 2py     2 2py     2 2py     2 3d1-    2 3d1-    2 3d1-    2 3d1- 
                                   2 4f1-    2 4f3-    2 4f1-    2 4f3-    2 4f1-    2 4f3-    2 5g1-    2 5g3-    2 5g1-    2 5g3- 


   1.3   2    -0.4111   -4.5906  0.868328 -0.004660 -0.023344 -0.039834 -0.022909  0.001170 -0.016616  0.013555 -0.045305 -0.009989
                                -0.016504  0.002846  0.000000  0.001913 -0.000000  0.013554  0.000000  0.010308  0.000000 -0.001240
                                -0.000000 -0.002946  0.000000  0.005275  0.000000  0.000784 -0.000000 -0.000000  0.003329  0.000000
                                -0.000000  0.018127  0.009258  0.008483  0.003341  0.000718 -0.006034 -0.011522 -0.002863 -0.000160
                                 0.006551 -0.000000  0.002093  0.000000 -0.000075 -0.000000 -0.001094  0.000000 -0.000215 -0.000000

   2.3   0     0.0810   -1.3194 -0.169389  0.016876 -0.032951  0.178809 -1.517153  1.143554 -0.026431  0.111481 -0.348101  0.259136
                                -0.145156  0.002792  0.000000 -0.014086 -0.000000 -0.189619 -0.000000 -0.578497  0.000000 -0.004865
                                -0.000000 -0.000511  0.000000  0.182111  0.000000 -0.004228 -0.000000 -0.000000  0.006777  0.000000
                                -0.000000  0.639036  0.769449 -0.035300  0.008393 -0.002084 -0.180053 -0.268633  0.002572 -0.000596
                                 0.132096 -0.000000  0.021742  0.000000 -0.002781 -0.000000 -0.024064  0.000000  0.000285 -0.000000

                                   1 3d2-    1 3d2-    1 3d2-    1 3d2-    1 3d2-    1 4f2-    1 4f2-    1 4f2-    1 4f2-    1 5g2- 
                                   1 5g4-    1 5g2-    1 5g4-    1 5g2-    1 5g4-    1 6h4-    1 6h2-    1 6h4-    1 6h2-    2 3d2- 
                                   2 3d2-    2 3d2-    2 3d2-    2 4f2-    2 4f2-    2 4f2-    2 5g2-    2 5g4-    2 5g2-    2 5g4- 


   1.4   0     0.2404   -1.5745  0.054431 -0.124993  0.120249 -0.227938  0.958809  0.002741 -0.007959 -0.148999  0.224221  0.007460
                                -0.000000 -0.036900  0.000000 -0.081340 -0.000000  0.000000 -0.012727 -0.000000  0.016281 -0.198560
                                 0.196986 -0.016853  0.003739 -0.091247 -0.020425  0.002313  0.029806  0.000000  0.001683 -0.000000

                                   1 1s      1 1s      1 1s      1 1s      1 1s      1 1s      1 2pz     1 2pz     1 2pz     1 2pz  
                                   1 2pz     1 2pz     1 3d0     1 3d2+    1 3d0     1 3d2+    1 3d0     1 3d2+    1 3d0     1 3d2+ 
                                   1 3d0     1 3d2+    1 4f0     1 4f2+    1 4f0     1 4f2+    1 4f0     1 4f2+    1 4f0     1 4f2+ 
                                   1 5g0     1 5g4+    1 5g2+    1 5g0     1 5g4+    1 5g2+    1 5g0     1 5g4+    1 5g2+    1 6h2+ 
                                   1 6h4+    1 6h0     1 6h2+    1 6h4+    1 6h0     2 1s      2 1s      2 1s      2 1s      2 1s   
                                   2 1s      2 2pz     2 2pz     2 2pz     2 2pz     2 2pz     2 3d0     2 3d2+    2 3d0     2 3d2+ 
                                   2 3d0     2 3d2+    2 3d0     2 3d2+    2 4f0     2 4f2+    2 4f0     2 4f2+    2 4f0     2 4f2+ 
                                   2 5g0     2 5g4+    2 5g2+    2 5g0     2 5g4+    2 5g2+ 

   1.5   2    -0.7708   -4.8908  0.656060  0.015547 -0.073607  0.175190  0.172412  0.152919  0.444660 -0.008533 -0.009710 -0.156382
                                -0.151832 -0.043094  0.013543 -0.000000 -0.019785  0.000000  0.061681  0.000000  0.026508  0.000000
                                 0.010864  0.000000  0.001644  0.000000  0.000256 -0.000000  0.020818 -0.000000  0.004053 -0.000000
                                 0.000114 -0.000000  0.000000  0.003271  0.000000 -0.000000 -0.011949 -0.000000  0.000000 -0.000000
                                -0.000000  0.000601 -0.000000  0.000000  0.002503  0.802701  0.018163 -0.056876 -0.249368 -0.099630
                                -0.019413 -0.015037  0.000565 -0.007286 -0.006086 -0.001723  0.001708  0.000000  0.003748  0.000000
                                 0.002293  0.000000  0.000646  0.000000 -0.003826 -0.000000 -0.001617 -0.000000 -0.000115  0.000000
                                 0.001058 -0.000000  0.000000  0.000150  0.000000 -0.000000

   2.5   0     0.0313   -0.9792 -0.083681  0.007632 -0.267978  5.566283 37.799859 96.018615 -0.041244  0.040763 -0.226032 -4.374063
                               -15.010508-29.692767  0.021611 -0.000000 -0.101761  0.000000  0.383490 -0.000000  1.822527 -0.000000
                                 2.648628 -0.000000  0.008025 -0.000000 -0.026446  0.000000  0.025159  0.000000  0.193332  0.000000
                                -0.002416  0.000000 -0.000000  0.017123 -0.000000  0.000000  0.005046  0.000000 -0.000000  0.000000
                                 0.000000  0.001073 -0.000000 -0.000000  0.036739 -0.007420 22.684634  1.977428 -2.617816 -0.432503
                                -0.022297 -0.420289  0.296135  0.101973  0.002516  0.000574  0.042871 -0.000000 -0.090475  0.000000
                                 0.001935 -0.000000 -0.000240  0.000000  0.040166  0.000000 -0.002667  0.000000 -0.000411 -0.000000
                                -0.002367  0.000000 -0.000000  0.000850 -0.000000 -0.000000

                                   1 2px     1 2px     1 2px     1 2px     1 2px     1 2px     1 3d1+    1 3d1+    1 3d1+    1 3d1+ 
                                   1 3d1+    1 4f1+    1 4f3+    1 4f1+    1 4f3+    1 4f1+    1 4f3+    1 4f1+    1 4f3+    1 5g1+ 
                                   1 5g3+    1 5g1+    1 5g3+    1 5g1+    1 5g3+    1 6h1+    1 6h3+    1 6h5+    1 6h1+    1 6h3+ 
                                   1 6h5+    2 2px     2 2px     2 2px     2 2px     2 2px     2 3d1+    2 3d1+    2 3d1+    2 3d1+ 
                                   2 4f1+    2 4f3+    2 4f1+    2 4f3+    2 4f1+    2 4f3+    2 5g1+    2 5g3+    2 5g1+    2 5g3+ 


   1.6   0     0.0869   -1.3414  0.190367 -0.053002  0.229936  0.141708 15.542484  4.828979  0.012719  0.000360 -0.250689  0.594527
                                -8.272578 -0.008216 -0.000000  0.020930  0.000000  0.246060 -0.000000  0.412480 -0.000000 -0.001252
                                -0.000000 -0.026706  0.000000  0.010881  0.000000  0.007129 -0.000000  0.000000  0.123566 -0.000000
                                -0.000000  3.138068 -0.486460 -0.167561  0.008778 -0.000433 -0.026896 -0.075283  0.012260 -0.001441
                                 0.093890  0.000000  0.009637  0.000000 -0.001512 -0.000000 -0.015011 -0.000000 -0.000040  0.000000

                                   1 2py     1 2py     1 2py     1 2py     1 2py     1 2py     1 3d1-    1 3d1-    1 3d1-    1 3d1- 
                                   1 3d1-    1 4f1-    1 4f3-    1 4f1-    1 4f3-    1 4f1-    1 4f3-    1 4f1-    1 4f3-    1 5g1- 
                                   1 5g3-    1 5g1-    1 5g3-    1 5g1-    1 5g3-    1 6h1-    1 6h3-    1 6h5-    1 6h1-    1 6h3- 
                                   1 6h5-    2 2py     2 2py     2 2py     2 2py     2 2py     2 3d1-    2 3d1-    2 3d1-    2 3d1- 
                                   2 4f1-    2 4f3-    2 4f1-    2 4f3-    2 4f1-    2 4f3-    2 5g1-    2 5g3-    2 5g1-    2 5g3- 


   1.7   0     0.0869   -1.3414  0.190367 -0.053002  0.229936  0.141708 15.542484  4.828979  0.012719  0.000360 -0.250689  0.594527
                                -8.272578 -0.008216  0.000000  0.020930 -0.000000  0.246060  0.000000  0.412480  0.000000 -0.001252
                                 0.000000 -0.026706 -0.000000  0.010881 -0.000000  0.007129  0.000000  0.000000  0.123566  0.000000
                                -0.000000  3.138068 -0.486460 -0.167561  0.008778 -0.000433 -0.026896 -0.075283  0.012260 -0.001441
                                 0.093890 -0.000000  0.009637 -0.000000 -0.001512  0.000000 -0.015011  0.000000 -0.000040 -0.000000

                                   1 3d2-    1 3d2-    1 3d2-    1 3d2-    1 3d2-    1 4f2-    1 4f2-    1 4f2-    1 4f2-    1 5g2- 
                                   1 5g4-    1 5g2-    1 5g4-    1 5g2-    1 5g4-    1 6h4-    1 6h2-    1 6h4-    1 6h2-    2 3d2- 
                                   2 3d2-    2 3d2-    2 3d2-    2 4f2-    2 4f2-    2 4f2-    2 5g2-    2 5g4-    2 5g2-    2 5g4- 


   1.8   0     0.2849   -1.1243  0.070669 -0.252341  0.540047  3.672764  4.483974  0.001668 -0.004007 -1.592589 -3.906389 -0.000531
                                 0.000000  0.034607  0.000000  0.450216  0.000000  0.000000 -0.032795 -0.000000 -0.269929  1.410504
                                 0.546935  0.004329 -0.000696 -0.375464 -0.028871  0.002693  0.057646  0.000000  0.000367 -0.000000

 HOMO      1.2    -0.411060 =     -11.1855eV
 LUMO      3.1     0.027105 =       0.7376eV
 LUMO-HOMO         0.438164 =      11.9231eV


 **********************************************************************************************************************************
 DATASETS  * FILE   NREC   LENGTH (MB)   RECORD NAMES
              1      19       21.05       500      610      700      900      950      970     1000      129      960     1100   
                                          VAR    BASINP    GEOM    SYMINP    ZMAT    AOBASIS   BASIS     P2S    ABASIS      S 
                                         1400     1410     1420     1200     1210     1080     1600     1650     1700   
                                           T        V       ECP      H0       H01     AOSYM     SMH    MOLCAS    OPER   

              2       4        3.36       700     1000      520     2100   
                                         GEOM     BASIS   MCVARS     RHF  

 PROGRAMS   *        TOTAL       RHF       INT
 CPU TIMES  *        50.40      1.89     47.82
 REAL TIME  *        59.78 SEC
 DISK USED  *         7.58 GB      
 SF USED    *         0.10 MB      
 GA USED    *         0.00 MB       (max)       0.00 MB       (current)
 **********************************************************************************************************************************
 SETTING SCF(I)         =       -12.11598539  AU                              
 SETTING _CC_NORM_MAX   =         2.00000000                                  


 PROGRAM * CCSD (Unrestricted open-shell coupled cluster)     Authors: C. Hampel, H.-J. Werner, 1991, M. Deegan, P.J. Knowles, 1992


 Convergence thresholds:  THRVAR = 1.00D-08  THRDEN = 1.00D-06

 CCSD(T)     terms to be evaluated (factor= 1.000)


 Number of closed-shell orbitals:   5 (   2   1   1   0   1   0   0   0 )
 Number of external orbitals:     407 (  74  49  49  30  75  50  50  30 )

 Memory could be reduced to 99.00 Mwords without degradation in triples

 Number of N-1 electron functions:              10
 Number of N-2 electron functions:              45
 Number of singly external CSFs:               642
 Number of doubly external CSFs:            746087
 Total number of CSFs:                      746729

 Molecular orbitals read from record     2100.2  Type=RHF/CANONICAL (state 1.1)

 Integral transformation finished. Total CPU:   2.07 sec, npass=  1  Memory used:  15.48 MW

 Starting RMP2 calculation

 ITER.      SQ.NORM     CORR.ENERGY   TOTAL ENERGY   ENERGY CHANGE        DEN1      VAR(S)    VAR(P)  DIIS     TIME
   1      1.11884634    -0.33426479   -12.45025017    -0.33426479    -0.00048748  0.41D-13  0.26D-03  1  1     2.20
   2      1.11942977    -0.33477508   -12.45076046    -0.00051029    -0.00000024  0.25D-15  0.16D-06  2  2     2.41
   3      1.11944004    -0.33478018   -12.45076557    -0.00000511    -0.00000000  0.18D-17  0.67D-10  3  3     2.47
   4      1.11944011    -0.33478019   -12.45076558    -0.00000001    -0.00000000  0.20D-19  0.35D-13  4  4     2.55

 Norm of t1 vector:      0.00000220      S-energy:    -0.00000000      T1 diagnostic:  0.00000049
 Norm of t2 vector:      0.34560108      P-energy:    -0.33478019
                                         Alpha-Beta:  -0.26288539
                                         Alpha-Alpha: -0.03594740
                                         Beta-Beta:   -0.03594740

 Spin contamination <S**2-Sz**2-Sz>     0.00000000
  Reference energy                    -12.115985386968
  RHF-RMP2 correlation energy          -0.334780193837
 !RHF-RMP2 energy                     -12.450765580805

 Starting UCCSD calculation

 ITER.      SQ.NORM     CORR.ENERGY   TOTAL ENERGY   ENERGY CHANGE        DEN1      VAR(S)    VAR(P)  DIIS     TIME
   1      1.11885390    -0.32999646   -12.44598185    -0.32999646    -0.01007396  0.20D-02  0.21D-02  1  1     3.43
   2      1.12899858    -0.33929899   -12.45528438    -0.00930253    -0.00105902  0.39D-04  0.46D-03  2  2     4.30
   3      1.13369700    -0.34140254   -12.45738793    -0.00210355    -0.00011025  0.11D-04  0.53D-04  3  3     5.19
   4      1.13590787    -0.34217293   -12.45815832    -0.00077039    -0.00000976  0.40D-06  0.51D-05  4  4     6.07
   5      1.13639814    -0.34225973   -12.45824512    -0.00008680    -0.00000072  0.44D-07  0.34D-06  5  5     6.97
   6      1.13647296    -0.34227110   -12.45825649    -0.00001137    -0.00000005  0.43D-08  0.23D-07  6  6     7.87
   7      1.13647940    -0.34227270   -12.45825809    -0.00000160    -0.00000000  0.59D-09  0.20D-08  7  7     8.77
   8      1.13647922    -0.34227245   -12.45825783     0.00000026    -0.00000000  0.81D-10  0.13D-09  8  8     9.70

 Norm of t1 vector:      0.05963822      S-energy:    -0.00000001      T1 diagnostic:  0.01333551
                                                                       D1 diagnostic:  0.02860480
 Norm of t2 vector:      0.36458538      P-energy:    -0.34227244
                                         Alpha-Beta:  -0.28006423
                                         Alpha-Alpha: -0.03110410
                                         Beta-Beta:   -0.03110410

 Doubles amplitudes (print threshold =  0.500E-01):

         I         J         SYM. A    SYM. B    A         B      T(IJ, AB) [Alpha-Beta]

         3         3         6         6         2         2     -0.06020075
         4         4         7         7         2         2     -0.06020075

 Spin contamination <S**2-Sz**2-Sz>     0.00000000

 Memory could be reduced to 98.87 Mwords without degradation in triples
 

 RESULTS
 =======

  Reference energy                    -12.115985386968
  UCCSD singles energy                 -0.000000008914
  UCCSD pair energy                    -0.342272436874
  UCCSD correlation energy             -0.342272445788
  Triples (T) contribution             -0.017859535071
  Total correlation energy             -0.360131980859
 
  RHF-UCCSD energy                    -12.458257832757
  RHF-UCCSD[T] energy                 -12.476711198884
  RHF-UCCSD-T energy                  -12.475850801902
 !RHF-UCCSD(T) energy                 -12.476117367828

 Program statistics:

 Available memory in ccsd:               999999650
 Min. memory needed in ccsd:               2618787
 Max. memory used in ccsd:                 3462400
 Max. memory used in cckext:               2939636 ( 8 integral passes)
 Max. memory used in cckint:              15482291 ( 1 integral passes)



 **********************************************************************************************************************************
 DATASETS  * FILE   NREC   LENGTH (MB)   RECORD NAMES
              1      19       21.05       500      610      700      900      950      970     1000      129      960     1100   
                                          VAR    BASINP    GEOM    SYMINP    ZMAT    AOBASIS   BASIS     P2S    ABASIS      S 
                                         1400     1410     1420     1200     1210     1080     1600     1650     1700   
                                           T        V       ECP      H0       H01     AOSYM     SMH    MOLCAS    OPER   

              2       4        3.36       700     1000      520     2100   
                                         GEOM     BASIS   MCVARS     RHF  

 PROGRAMS   *        TOTAL  UCCSD(T)       RHF       INT
 CPU TIMES  *        69.52     19.11      1.89     47.82
 REAL TIME  *        84.61 SEC
 DISK USED  *         8.91 GB      
 SF USED    *         1.11 GB      
 GA USED    *         0.00 MB       (max)       0.00 MB       (current)
 **********************************************************************************************************************************
 SETTING CCSD(I)        =       -12.47611737  AU                              
                                                                                                                                                                                                                                                                

        SCF            CCSD
    -12.11598539   -12.47611737
                                                  

 UCCSD(T)/USERDEF energy=    -12.476117367828

        UCCSD(T)        RHF-SCF 
    -12.47611737    -12.11598539
 **********************************************************************************************************************************
 Molpro calculation terminated
 Variable memory released
