/global/u2/h/haihan/Research/C2H2/qmc/07/runs/optJ123
  Input file(s): optJ123.in.xml 

=====================================================
                    QMCPACK 3.9.9

       (c) Copyright 2003-  QMCPACK developers

                    Please cite:
 J. Kim et al. J. Phys. Cond. Mat. 30 195901 (2018)
      https://doi.org/10.1088/1361-648X/aab9c3

  Git branch: develop
  Last git commit: a854014790c5309de44bee11aacb72110d1159f0
  Last git commit date: Thu Aug 6 17:11:13 2020 -0400
  Last git commit subject: Merge pull request #2622 from Hyeondeok-Shin/deterministic_test
=====================================================
  Global options 

  Total number of MPI ranks = 4
  Number of MPI groups      = 1
  MPI group ID              = 0
  Number of ranks in group  = 4
  MPI ranks per node        = 1
  OMP 1st level threads     = 1
  OMP nested threading disabled or only 1 thread on the 2nd level

  Precision used in this calculation, see definitions in the manual:
  Base precision      = double
  Full precision      = double

  Structure-of-arrays (SoA) optimization enabled

  Input XML = optJ123.in.xml

  Project = optJ123
  date    = 2021-02-02 19:15:50 PST
  host    = nid06437

 Random Number
 -------------
  Offset for the random number seeds based on time: 358

  Range of prime numbers to use as seeds over processors and threads = 2423-2459


 Lattice
 -------
  Lattice is not specified for the Open BC. Add a huge box.
  Simulation cell radius   = 5000000000.000000 bohr
  Wigner-Seitz cell radius = 5000000000.000000 bohr

 Particle Set 
 ------------
  Name: ion0
  Initializing the lattice by the global supercell
  All the species have the same mass 1.000000
  Particle set size: 4

 Particle Set 
 ------------
  Name: e
  Initializing the lattice by the global supercell
  All the species have the same mass 1.000000
  Particle set size: 10

 Wavefunction setup: 
 ------------------- 
  Name: psi0
  LCAO: SoaAtomicBasisSet<MultiQuintic,1>
Reading BasisSet from HDF5 file:../scf/scf.h5
<input node="atomicBasisSet" name="gaussian" expandYlm="pyscf" angular="spherical" elementType="C" normalized="no" type="Numerical" expM="0" />
  AO BasisSet for C
   Spherical Harmonics contain (-1)^m factor
   Angular momentum m expanded as -l, ... ,l, with the exception of L=1 (1,-1,0)
   Grid is created by the input paremters in h5
    Using log grid ri = 0.000001 rf = 100.000000 npts = 1001
   R(n,l,m,s) 0 0 0 0
   R(n,l,m,s) 1 0 0 0
   R(n,l,m,s) 2 0 0 0
   R(n,l,m,s) 3 0 0 0
   R(n,l,m,s) 4 0 0 0
   R(n,l,m,s) 5 1 0 0
   R(n,l,m,s) 6 1 0 0
   R(n,l,m,s) 7 1 0 0
   R(n,l,m,s) 8 1 0 0
   R(n,l,m,s) 9 1 0 0
   R(n,l,m,s) 10 2 0 0
   R(n,l,m,s) 11 2 0 0
   R(n,l,m,s) 12 2 0 0
   R(n,l,m,s) 13 2 0 0
   R(n,l,m,s) 14 3 0 0
   R(n,l,m,s) 15 3 0 0
   R(n,l,m,s) 16 3 0 0
   R(n,l,m,s) 17 4 0 0
   R(n,l,m,s) 18 4 0 0
Expanding Ylm as L=1 as (1,-1,0) and L>1 as -l,-l+1,...,l-1,l
   Adding 1 spherical orbitals
   Adding 1 spherical orbitals
   Adding 1 spherical orbitals
   Adding 1 spherical orbitals
   Adding 1 spherical orbitals
   Adding 3 spherical orbitals
   Adding 3 spherical orbitals
   Adding 3 spherical orbitals
   Adding 3 spherical orbitals
   Adding 3 spherical orbitals
   Adding 5 spherical orbitals
   Adding 5 spherical orbitals
   Adding 5 spherical orbitals
   Adding 5 spherical orbitals
   Adding 7 spherical orbitals
   Adding 7 spherical orbitals
   Adding 7 spherical orbitals
   Adding 9 spherical orbitals
   Adding 9 spherical orbitals
  Setting cutoff radius 7192398756697620.000000

   Maximum Angular Momentum  = 4
   Number of Radial functors = 19
   Basis size                = 79

<input node="atomicBasisSet" name="gaussian" expandYlm="pyscf" angular="spherical" elementType="H" normalized="no" type="Numerical" expM="0" />
  AO BasisSet for H
   Spherical Harmonics contain (-1)^m factor
   Angular momentum m expanded as -l, ... ,l, with the exception of L=1 (1,-1,0)
   Grid is created by the input paremters in h5
    Using log grid ri = 0.000001 rf = 100.000000 npts = 1001
   R(n,l,m,s) 0 0 0 0
   R(n,l,m,s) 1 0 0 0
   R(n,l,m,s) 2 0 0 0
   R(n,l,m,s) 3 0 0 0
   R(n,l,m,s) 4 0 0 0
   R(n,l,m,s) 5 1 0 0
   R(n,l,m,s) 6 1 0 0
   R(n,l,m,s) 7 1 0 0
   R(n,l,m,s) 8 1 0 0
   R(n,l,m,s) 9 2 0 0
   R(n,l,m,s) 10 2 0 0
   R(n,l,m,s) 11 2 0 0
   R(n,l,m,s) 12 3 0 0
   R(n,l,m,s) 13 3 0 0
Expanding Ylm as L=1 as (1,-1,0) and L>1 as -l,-l+1,...,l-1,l
   Adding 1 spherical orbitals
   Adding 1 spherical orbitals
   Adding 1 spherical orbitals
   Adding 1 spherical orbitals
   Adding 1 spherical orbitals
   Adding 3 spherical orbitals
   Adding 3 spherical orbitals
   Adding 3 spherical orbitals
   Adding 3 spherical orbitals
   Adding 5 spherical orbitals
   Adding 5 spherical orbitals
   Adding 5 spherical orbitals
   Adding 7 spherical orbitals
   Adding 7 spherical orbitals
  Setting cutoff radius 995674776766.907715

   Maximum Angular Momentum  = 3
   Number of Radial functors = 14
   Basis size                = 46

  Created SPOSet builder named 'LCAOBSet' of type molecularorbital
Reuse SPOSetBuilder "LCAOBSet" type MolecularOrbital
  Building SPOSet '' with '' basis set.
Reuse SPOSetBuilder "LCAOBSet" type MolecularOrbital
  Building SPOSet '' with '' basis set.
  Creating a determinant updet group=0 sposet=updet
  Reusing a SPO set updet
  Setting delay_rank by default!
  Using rank-1 Sherman-Morrison Fahy update (SM1)
  Using DiracDeterminant with DelayedUpdate engine

  Creating a determinant downdet group=1 sposet=downdet
  Reusing a SPO set downdet
  Setting delay_rank by default!
  Using rank-1 Sherman-Morrison Fahy update (SM1)
  Using DiracDeterminant with DelayedUpdate engine

  Added a fermionic WaveFunctionComponent SlaterDet

   Jastrow
   -------
    Name: J1   Type: One-Body   Function: bspline

    Radial function for element: H
     Number of parameters: 10
     Cusp: 0.000000
     Cutoff radius: 5.000000

     Name                        Value Type Recompute Use Index
     ---- ---------------------------- ---- --------- --- -----
     eH_0                -2.292982e-01    1         1  ON     0
     eH_1                -2.136974e-01    1         1  ON     1
     eH_2                -1.929411e-01    1         1  ON     2
     eH_3                -1.658841e-01    1         1  ON     3
     eH_4                -1.459784e-01    1         1  ON     4
     eH_5                -1.185032e-01    1         1  ON     5
     eH_6                -8.881749e-02    1         1  ON     6
     eH_7                -6.163955e-02    1         1  ON     7
     eH_8                -3.524144e-02    1         1  ON     8
     eH_9                -1.607343e-02    1         1  ON     9

    Radial function for element: C
     Number of parameters: 10
     Cusp: 0
     Cutoff radius: 5

     Name                        Value Type Recompute Use Index
     ---- ---------------------------- ---- --------- --- -----
     eC_0                -9.951798e-01    1         1  ON     0
     eC_1                -9.384497e-01    1         1  ON     1
     eC_2                -8.350733e-01    1         1  ON     2
     eC_3                -6.938153e-01    1         1  ON     3
     eC_4                -5.467416e-01    1         1  ON     4
     eC_5                -4.138259e-01    1         1  ON     5
     eC_6                -2.941435e-01    1         1  ON     6
     eC_7                -1.908353e-01    1         1  ON     7
     eC_8                -1.102419e-01    1         1  ON     8
     eC_9                -5.324208e-02    1         1  ON     9


   Jastrow
   -------
    Name: J2   Type: Two-Body   Function: bspline

    Radial function for species: u - u
     Number of parameters: 10
     Cusp: -0.25
     Cutoff radius: 5

     Name                        Value Type Recompute Use Index
     ---- ---------------------------- ---- --------- --- -----
     uu_0                 4.620712e-01    1         1  ON     0
     uu_1                 3.756893e-01    1         1  ON     1
     uu_2                 2.863968e-01    1         1  ON     2
     uu_3                 2.177637e-01    1         1  ON     3
     uu_4                 1.597583e-01    1         1  ON     4
     uu_5                 1.134029e-01    1         1  ON     5
     uu_6                 7.915028e-02    1         1  ON     6
     uu_7                 5.162389e-02    1         1  ON     7
     uu_8                 2.984533e-02    1         1  ON     8
     uu_9                 1.387733e-02    1         1  ON     9

    Radial function for species: u - d
     Number of parameters: 10
     Cusp: -0.5
     Cutoff radius: 5

     Name                        Value Type Recompute Use Index
     ---- ---------------------------- ---- --------- --- -----
     ud_0                 7.575304e-01    1         1  ON     0
     ud_1                 5.688324e-01    1         1  ON     1
     ud_2                 4.217528e-01    1         1  ON     2
     ud_3                 3.102958e-01    1         1  ON     3
     ud_4                 2.264316e-01    1         1  ON     4
     ud_5                 1.625339e-01    1         1  ON     5
     ud_6                 1.132021e-01    1         1  ON     6
     ud_7                 7.564860e-02    1         1  ON     7
     ud_8                 4.424907e-02    1         1  ON     8
     ud_9                 2.208281e-02    1         1  ON     9


   Jastrow
   -------
    Name: J3   Type: eeI   Function: polynomial

     Ion: H   electron-electron: u - u
      Number of parameters for e-e: 3, for e-I: 3
      Cutoff radius: 5

Expected 26 parameters, but found 0 in PolynomialFunctor3D.
        Name                        Value Type Recompute Use Index
      ------ ---------------------------- ---- --------- --- -----
       uuH_0                 0.000000e+00    1         1  ON     0
       uuH_1                 0.000000e+00    1         1  ON     1
       uuH_2                 0.000000e+00    1         1  ON     2
       uuH_3                 0.000000e+00    1         1  ON     3
       uuH_4                 0.000000e+00    1         1  ON     4
       uuH_5                 0.000000e+00    1         1  ON     5
       uuH_6                 0.000000e+00    1         1  ON     6
       uuH_7                 0.000000e+00    1         1  ON     7
       uuH_8                 0.000000e+00    1         1  ON     8
       uuH_9                 0.000000e+00    1         1  ON     9
      uuH_10                 0.000000e+00    1         1  ON    10
      uuH_11                 0.000000e+00    1         1  ON    11
      uuH_12                 0.000000e+00    1         1  ON    12
      uuH_13                 0.000000e+00    1         1  ON    13
      uuH_14                 0.000000e+00    1         1  ON    14
      uuH_15                 0.000000e+00    1         1  ON    15
      uuH_16                 0.000000e+00    1         1  ON    16
      uuH_17                 0.000000e+00    1         1  ON    17
      uuH_18                 0.000000e+00    1         1  ON    18
      uuH_19                 0.000000e+00    1         1  ON    19
      uuH_20                 0.000000e+00    1         1  ON    20
      uuH_21                 0.000000e+00    1         1  ON    21
      uuH_22                 0.000000e+00    1         1  ON    22
      uuH_23                 0.000000e+00    1         1  ON    23
      uuH_24                 0.000000e+00    1         1  ON    24
      uuH_25                 0.000000e+00    1         1  ON    25

     Ion: H   electron-electron: u - d
      Number of parameters for e-e: 3, for e-I: 3
      Cutoff radius: 5

Expected 26 parameters, but found 0 in PolynomialFunctor3D.
        Name                        Value Type Recompute Use Index
      ------ ---------------------------- ---- --------- --- -----
       udH_0                 0.000000e+00    1         1  ON     0
       udH_1                 0.000000e+00    1         1  ON     1
       udH_2                 0.000000e+00    1         1  ON     2
       udH_3                 0.000000e+00    1         1  ON     3
       udH_4                 0.000000e+00    1         1  ON     4
       udH_5                 0.000000e+00    1         1  ON     5
       udH_6                 0.000000e+00    1         1  ON     6
       udH_7                 0.000000e+00    1         1  ON     7
       udH_8                 0.000000e+00    1         1  ON     8
       udH_9                 0.000000e+00    1         1  ON     9
      udH_10                 0.000000e+00    1         1  ON    10
      udH_11                 0.000000e+00    1         1  ON    11
      udH_12                 0.000000e+00    1         1  ON    12
      udH_13                 0.000000e+00    1         1  ON    13
      udH_14                 0.000000e+00    1         1  ON    14
      udH_15                 0.000000e+00    1         1  ON    15
      udH_16                 0.000000e+00    1         1  ON    16
      udH_17                 0.000000e+00    1         1  ON    17
      udH_18                 0.000000e+00    1         1  ON    18
      udH_19                 0.000000e+00    1         1  ON    19
      udH_20                 0.000000e+00    1         1  ON    20
      udH_21                 0.000000e+00    1         1  ON    21
      udH_22                 0.000000e+00    1         1  ON    22
      udH_23                 0.000000e+00    1         1  ON    23
      udH_24                 0.000000e+00    1         1  ON    24
      udH_25                 0.000000e+00    1         1  ON    25

     Ion: C   electron-electron: u - u
      Number of parameters for e-e: 3, for e-I: 3
      Cutoff radius: 5

Expected 26 parameters, but found 0 in PolynomialFunctor3D.
        Name                        Value Type Recompute Use Index
      ------ ---------------------------- ---- --------- --- -----
       uuC_0                 0.000000e+00    1         1  ON     0
       uuC_1                 0.000000e+00    1         1  ON     1
       uuC_2                 0.000000e+00    1         1  ON     2
       uuC_3                 0.000000e+00    1         1  ON     3
       uuC_4                 0.000000e+00    1         1  ON     4
       uuC_5                 0.000000e+00    1         1  ON     5
       uuC_6                 0.000000e+00    1         1  ON     6
       uuC_7                 0.000000e+00    1         1  ON     7
       uuC_8                 0.000000e+00    1         1  ON     8
       uuC_9                 0.000000e+00    1         1  ON     9
      uuC_10                 0.000000e+00    1         1  ON    10
      uuC_11                 0.000000e+00    1         1  ON    11
      uuC_12                 0.000000e+00    1         1  ON    12
      uuC_13                 0.000000e+00    1         1  ON    13
      uuC_14                 0.000000e+00    1         1  ON    14
      uuC_15                 0.000000e+00    1         1  ON    15
      uuC_16                 0.000000e+00    1         1  ON    16
      uuC_17                 0.000000e+00    1         1  ON    17
      uuC_18                 0.000000e+00    1         1  ON    18
      uuC_19                 0.000000e+00    1         1  ON    19
      uuC_20                 0.000000e+00    1         1  ON    20
      uuC_21                 0.000000e+00    1         1  ON    21
      uuC_22                 0.000000e+00    1         1  ON    22
      uuC_23                 0.000000e+00    1         1  ON    23
      uuC_24                 0.000000e+00    1         1  ON    24
      uuC_25                 0.000000e+00    1         1  ON    25

     Ion: C   electron-electron: u - d
      Number of parameters for e-e: 3, for e-I: 3
      Cutoff radius: 5

Expected 26 parameters, but found 0 in PolynomialFunctor3D.
        Name                        Value Type Recompute Use Index
      ------ ---------------------------- ---- --------- --- -----
       udC_0                 0.000000e+00    1         1  ON     0
       udC_1                 0.000000e+00    1         1  ON     1
       udC_2                 0.000000e+00    1         1  ON     2
       udC_3                 0.000000e+00    1         1  ON     3
       udC_4                 0.000000e+00    1         1  ON     4
       udC_5                 0.000000e+00    1         1  ON     5
       udC_6                 0.000000e+00    1         1  ON     6
       udC_7                 0.000000e+00    1         1  ON     7
       udC_8                 0.000000e+00    1         1  ON     8
       udC_9                 0.000000e+00    1         1  ON     9
      udC_10                 0.000000e+00    1         1  ON    10
      udC_11                 0.000000e+00    1         1  ON    11
      udC_12                 0.000000e+00    1         1  ON    12
      udC_13                 0.000000e+00    1         1  ON    13
      udC_14                 0.000000e+00    1         1  ON    14
      udC_15                 0.000000e+00    1         1  ON    15
      udC_16                 0.000000e+00    1         1  ON    16
      udC_17                 0.000000e+00    1         1  ON    17
      udC_18                 0.000000e+00    1         1  ON    18
      udC_19                 0.000000e+00    1         1  ON    19
      udC_20                 0.000000e+00    1         1  ON    20
      udC_21                 0.000000e+00    1         1  ON    21
      udC_22                 0.000000e+00    1         1  ON    22
      udC_23                 0.000000e+00    1         1  ON    23
      udC_24                 0.000000e+00    1         1  ON    24
      udC_25                 0.000000e+00    1         1  ON    25

  QMCHamiltonian::addOperator Kinetic to H, physical Hamiltonian 
  QMCHamiltonian::addOperator ElecElec to H, physical Hamiltonian 
QMCHamiltonian::addOperatorType added type coulomb named ElecElec
  QMCHamiltonian::addOperator IonIon to H, physical Hamiltonian 
QMCHamiltonian::addOperatorType added type coulomb named IonIon

  ECPotential builder for pseudopotential 

  Adding pseudopotential for H
   Linear grid  ri=0 rf=10 npts = 10001
    ECPComponentBuilder::buildSemiLocalAndLocal 
    Assuming Hartree unit
   Number of angular momentum channels 2
   Maximum angular momentum channel 1
   Creating a Linear Grid Rmax=1e-10
  Using global grid with delta = 0.001
   Making L=1 a local potential with a radial cutoff of 9.999
    Non-local pseudopotential parameters
    Maximum angular mementum = 0
    Number of non-local channels = 1
       l(0)=0
    Cutoff radius = 0.001
    Spherical grids and weights: 
                        1                 0                 0       0.08333333333
                       -1   1.224646799e-16                 0       0.08333333333
             0.4472135955       0.894427191                 0       0.08333333333
            -0.4472135955      0.7236067977      0.5257311121       0.08333333333
             0.4472135955      0.2763932023      0.8506508084       0.08333333333
            -0.4472135955     -0.2763932023      0.8506508084       0.08333333333
             0.4472135955     -0.7236067977      0.5257311121       0.08333333333
            -0.4472135955      -0.894427191   1.095357397e-16       0.08333333333
             0.4472135955     -0.7236067977     -0.5257311121       0.08333333333
            -0.4472135955     -0.2763932023     -0.8506508084       0.08333333333
             0.4472135955      0.2763932023     -0.8506508084       0.08333333333
            -0.4472135955      0.7236067977     -0.5257311121       0.08333333333
    Maximum cutoff radius 0.001

  Adding pseudopotential for C
   Linear grid  ri=0 rf=10 npts = 10001
    ECPComponentBuilder::buildSemiLocalAndLocal 
    Assuming Hartree unit
   Number of angular momentum channels 2
   Maximum angular momentum channel 1
   Creating a Linear Grid Rmax=1.405
  Using global grid with delta = 0.001
   Making L=1 a local potential with a radial cutoff of 9.999
    Non-local pseudopotential parameters
    Maximum angular mementum = 0
    Number of non-local channels = 1
       l(0)=0
    Cutoff radius = 1.405
    Spherical grids and weights: 
                        1                 0                 0       0.08333333333
                       -1   1.224646799e-16                 0       0.08333333333
             0.4472135955       0.894427191                 0       0.08333333333
            -0.4472135955      0.7236067977      0.5257311121       0.08333333333
             0.4472135955      0.2763932023      0.8506508084       0.08333333333
            -0.4472135955     -0.2763932023      0.8506508084       0.08333333333
             0.4472135955     -0.7236067977      0.5257311121       0.08333333333
            -0.4472135955      -0.894427191   1.095357397e-16       0.08333333333
             0.4472135955     -0.7236067977     -0.5257311121       0.08333333333
            -0.4472135955     -0.2763932023     -0.8506508084       0.08333333333
             0.4472135955      0.2763932023     -0.8506508084       0.08333333333
            -0.4472135955      0.7236067977     -0.5257311121       0.08333333333
    Maximum cutoff radius 1.405
  QMCHamiltonian::addOperator LocalECP to H, physical Hamiltonian 

  Using NonLocalECP potential 
    Maximum grid on a sphere for NonLocalECPotential: 12
  QMCHamiltonian::addOperator NonLocalECP to H, physical Hamiltonian 
QMCHamiltonian::addOperatorType added type pseudo named PseudoPot

  QMCHamiltonian::add2WalkerProperty added
    5 to P::PropertyList 
    0 to P::Collectables 
    starting Index of the observables in P::PropertyList = 9
ParticleSetPool::randomize 1 ParticleSet.
<init source="ion0" target="e">
</init>
  Initialization Execution time = 1.435 secs
=========================================================
 Summary of QMC systems 
=========================================================
ParticleSetPool has: 

  ParticleSet 'e' contains 10 particles :  u(5) d(5)

    u -6.9651712052e-01 -2.4744472821e-01  1.4515498218e+00
    u  4.9912168271e-01  5.8825859943e-01  9.1138867130e-01
    u -7.4621174091e-01 -4.7185272463e-03 -8.3813454570e-01
    u -2.5839221385e-01  4.0811274797e-01 -1.7784992445e+00
    u  1.8511119756e-01 -4.6059407228e-01  3.7771930918e+00
    d -5.0557997846e-02 -6.8426884995e-01  1.5545892420e+00
    d -3.0932912438e-01  4.6119559702e-01  5.5545981467e-01
    d  5.0214333929e-01 -5.0585125058e-02 -1.7616286272e+00
    d  5.3588211876e-01  7.5623768402e-03 -5.3752237219e-01
    d  6.9219362713e-01  2.7704176316e-01 -3.4450402947e+00

  Distance table for dissimilar particles (A-B):
    source: ion0  target: e
    Using structure-of-arrays (SoA) data layout
    Distance computations use open boundary conditions in 3D.

  Distance table for similar particles (A-A):
    source/target: e
    Using structure-of-arrays (SoA) data layout
    Distance computations use open boundary conditions in 3D.


  ParticleSet 'ion0' contains 4 particles :  C(2) H(2)

    C  0.0000000000e+00  0.0000000000e+00  1.1362923200e+00
    C  0.0000000000e+00  0.0000000000e+00 -1.1362923200e+00
    H  0.0000000000e+00  0.0000000000e+00  3.1452601600e+00
    H  0.0000000000e+00  0.0000000000e+00 -3.1452601600e+00

  Distance table for similar particles (A-A):
    source/target: ion0
    Using structure-of-arrays (SoA) data layout
    Distance computations use open boundary conditions in 3D.


  Hamiltonian h0
  Kinetic         Kinetic energy
  ElecElec        CoulombAB source=e

  IonIon          CoulombAA source/target ion0

  LocalECP        LocalECPotential: ion0
  NonLocalECP     NonLocalECPotential: ion0

Loop execution max-interations = 3

=========================================================
  Start QMCFixedSampleLinearOptimize
  File Root optJ123.s000 append = no 
=========================================================
  Skip QMCDriver::putQMCInfo 
  Resetting Properties of the walkers 1 x 14
  Adding 1 walkers to 0 existing sets
  Total number of walkers: 4.0000000000e+00
  Total weight: 4.0000000000e+00

=========================================================
  Start VMC
  File Root optJ123.s000 append = no 
=========================================================
Resetting walkers
  Using the current 1 walkers.
  Total number of walkers: 4.0000000000e+00
  Total weight: 4.0000000000e+00
  Resetting Properties of the walkers 1 x 14

<vmc function="put">
  qmc_counter=0  my_counter=0
  time step      = 1.5000000000e+00
  blocks         = 100
  steps          = 80
  substeps       = 2
  current        = 0
  target samples = 3.2000000000e+04
  walkers/mpi    = 1

  stepsbetweensamples = 1
  SpinMoves      = no
<parameter name="blocks" condition="int">100</parameter>
<parameter name="blocks_between_recompute" condition="int">0</parameter>
<parameter name="check_properties" condition="int">100</parameter>
<parameter name="checkproperties" condition="int">100</parameter>
<parameter name="current" condition="int">0</parameter>
<parameter name="dmcwalkersperthread" condition="real">8.0000000000e+03</parameter>
<parameter name="maxcpusecs" condition="real">3.6000000000e+05</parameter>
<parameter name="record_configs" condition="int">0</parameter>
<parameter name="record_walkers" condition="int">1</parameter>
<parameter name="recordconfigs" condition="int">0</parameter>
<parameter name="recordwalkers" condition="int">1</parameter>
<parameter name="rewind" condition="int">0</parameter>
<parameter name="samples" condition="real">3.2000000000e+04</parameter>
<parameter name="samplesperthread" condition="real">8.0000000000e+03</parameter>
<parameter name="spinmass" condition="double">1.0000000000e+00</parameter>
<parameter name="spinmoves" condition="string">no</parameter>
<parameter name="steps" condition="int">80</parameter>
<parameter name="stepsbetweensamples" condition="int">1</parameter>
<parameter name="store_configs" condition="int">0</parameter>
<parameter name="storeconfigs" condition="int">0</parameter>
<parameter name="sub_steps" condition="int">2</parameter>
<parameter name="substeps" condition="int">2</parameter>
<parameter name="tau" condition="au">1.5000000000e+00</parameter>
<parameter name="time_step" condition="au">1.5000000000e+00</parameter>
<parameter name="timestep" condition="au">1.5000000000e+00</parameter>
<parameter name="use_drift" condition="string">yes</parameter>
<parameter name="usedrift" condition="string">yes</parameter>
<parameter name="walkers" condition="int">1</parameter>
<parameter name="warmup_steps" condition="int">0</parameter>
<parameter name="warmupsteps" condition="int">0</parameter>
  DumpConfig==false Nothing (configurations, state) will be saved.
  Walker Samples are dumped every 1 steps.
</vmc>
  Set drift_modifier UNR parameter a = 1.0000000000e+00
  Adding a default LocalEnergyEstimator for the MainEstimator 
 Using QMCCostFunction::QMCCostFunction
  Set drift_modifier UNR parameter a = 1.0000000000e+00
  Adding a default LocalEnergyEstimator for the MainEstimator 
<optimization-report>
<vmc stage="main" blocks="100">
  Initial partition of walkers 0 1 

  Using Particle by Particle moves
  Walker moves with drift
  Total Sample Size   =32000
  Walker distribution on root = 0 1 
  Using Locality Approximation
===== Memory Usage after the buffer registration =====
Available memory on node 0, free + buffers : 92500 MB
Memory footprint by rank 0 on node 0       : 79 MB
==================================================
  Anonymous Buffer size per walker : 21216 Bytes.
MEMORY increase 0 MB VMC::resetRun
====================================================
  SimpleFixedNodeBranch::finalize after a VMC block
    QMC counter        = 0
    time step          = 1.5
    reference energy   = -12.8165
    reference variance = 0.205374
====================================================
  Execution time = 1.4284e+01
</vmc>
<opt stage="setup">
  <log>
   Reading configurations from h5FileRoot optJ123.s000
  QMCCostFunction is created with 1 threads.
  Using Nonlocal PP in Opt: NonLocalECP
   Number of samples loaded to each thread : 8000 
  VMC Eavg = -1.2425e+01
  VMC Evar = 8.3003e-01
  Total weights = 3.2000e+04
  Execution time = 1.5027e+01
  </log>
</opt>
<opt stage="main" walkers="32000">
  <log>

*****************************************
Building overlap and Hamiltonian matrices
*****************************************

Among totally 144 optimized parameters, largest LM parameter change : 5.2373e-02 at parameter 2

******************************************************************************
Init Cost =  -1.1099e+01    New Cost =  -1.1105e+01  Delta Cost =  -5.6232e-03
******************************************************************************

The new set of parameters is valid. Updating the trial wave function!

*****************************************************************************
Applying the update for shift_i =   1.0000e-02     and shift_s =   2.5000e-01
*****************************************************************************
  Execution time = 4.1983e+01
  </log>
  <optVariables href="optJ123.s000.opt.xml">
  eC_0                -1.031706e+00 1 1  ON 0
  eC_1                -9.902459e-01 1 1  ON 1
  eC_2                -8.874465e-01 1 1  ON 2
  eC_3                -7.303978e-01 1 1  ON 3
  eC_4                -5.622434e-01 1 1  ON 4
  eC_5                -4.007755e-01 1 1  ON 5
  eC_6                -2.877997e-01 1 1  ON 6
  eC_7                -1.879260e-01 1 1  ON 7
  eC_8                -1.077806e-01 1 1  ON 8
  eC_9                -5.050361e-02 1 1  ON 9
  eH_0                -2.220836e-01 1 1  ON 10
  eH_1                -2.003878e-01 1 1  ON 11
  eH_2                -1.747718e-01 1 1  ON 12
  eH_3                -1.446830e-01 1 1  ON 13
  eH_4                -1.228098e-01 1 1  ON 14
  eH_5                -1.072245e-01 1 1  ON 15
  eH_6                -7.680305e-02 1 1  ON 16
  eH_7                -5.027771e-02 1 1  ON 17
  eH_8                -2.510689e-02 1 1  ON 18
  eH_9                -7.813519e-03 1 1  ON 19
  uu_0                 4.570616e-01 1 1  ON 20
  uu_1                 3.589118e-01 1 1  ON 21
  uu_2                 2.819567e-01 1 1  ON 22
  uu_3                 2.164284e-01 1 1  ON 23
  uu_4                 1.612432e-01 1 1  ON 24
  uu_5                 1.157033e-01 1 1  ON 25
  uu_6                 7.903817e-02 1 1  ON 26
  uu_7                 5.098402e-02 1 1  ON 27
  uu_8                 2.929756e-02 1 1  ON 28
  uu_9                 1.454981e-02 1 1  ON 29
  ud_0                 7.508773e-01 1 1  ON 30
  ud_1                 5.553614e-01 1 1  ON 31
  ud_2                 4.057547e-01 1 1  ON 32
  ud_3                 2.947065e-01 1 1  ON 33
  ud_4                 2.130917e-01 1 1  ON 34
  ud_5                 1.536052e-01 1 1  ON 35
  ud_6                 1.083349e-01 1 1  ON 36
  ud_7                 7.294099e-02 1 1  ON 37
  ud_8                 4.296328e-02 1 1  ON 38
  ud_9                 2.229999e-02 1 1  ON 39
 uuC_0                 3.291464e-03 1 1  ON 40
 uuC_1                 5.882086e-04 1 1  ON 41
 uuC_2                -7.972797e-03 1 1  ON 42
 uuC_3                -4.189677e-03 1 1  ON 43
 uuC_4                 2.164055e-03 1 1  ON 44
 uuC_5                 2.200207e-04 1 1  ON 45
 uuC_6                -7.100100e-03 1 1  ON 46
 uuC_7                -2.419287e-03 1 1  ON 47
 uuC_8                -7.628893e-03 1 1  ON 48
 uuC_9                 3.834502e-03 1 1  ON 49
uuC_10                -3.438756e-03 1 1  ON 50
uuC_11                 7.572132e-03 1 1  ON 51
uuC_12                 5.130999e-03 1 1  ON 52
uuC_13                 1.953283e-03 1 1  ON 53
uuC_14                -4.346872e-03 1 1  ON 54
uuC_15                -2.061017e-04 1 1  ON 55
uuC_16                -4.214180e-04 1 1  ON 56
uuC_17                 1.165865e-03 1 1  ON 57
uuC_18                 6.592229e-05 1 1  ON 58
uuC_19                -7.009356e-03 1 1  ON 59
uuC_20                -2.186601e-03 1 1  ON 60
uuC_21                 5.906495e-04 1 1  ON 61
uuC_22                 1.748796e-03 1 1  ON 62
uuC_23                 1.796000e-03 1 1  ON 63
uuC_24                -4.108365e-05 1 1  ON 64
uuC_25                -6.413518e-04 1 1  ON 65
 udC_0                -3.457152e-03 1 1  ON 66
 udC_1                -1.458377e-03 1 1  ON 67
 udC_2                 6.687994e-03 1 1  ON 68
 udC_3                 2.885904e-03 1 1  ON 69
 udC_4                -1.702457e-03 1 1  ON 70
 udC_5                -5.416008e-06 1 1  ON 71
 udC_6                 4.684546e-03 1 1  ON 72
 udC_7                -6.682514e-03 1 1  ON 73
 udC_8                 5.250147e-03 1 1  ON 74
 udC_9                 3.962692e-04 1 1  ON 75
udC_10                 1.680766e-03 1 1  ON 76
udC_11                -8.137178e-04 1 1  ON 77
udC_12                -4.508559e-03 1 1  ON 78
udC_13                -4.090560e-03 1 1  ON 79
udC_14                -7.914373e-04 1 1  ON 80
udC_15                 1.126691e-03 1 1  ON 81
udC_16                 8.550657e-03 1 1  ON 82
udC_17                -9.661376e-03 1 1  ON 83
udC_18                 5.517121e-03 1 1  ON 84
udC_19                 3.316652e-03 1 1  ON 85
udC_20                -2.075535e-03 1 1  ON 86
udC_21                 1.399702e-04 1 1  ON 87
udC_22                -1.053709e-03 1 1  ON 88
udC_23                 7.772558e-04 1 1  ON 89
udC_24                -1.520205e-04 1 1  ON 90
udC_25                 3.351278e-04 1 1  ON 91
 uuH_0                -3.867137e-04 1 1  ON 92
 uuH_1                 4.152164e-04 1 1  ON 93
 uuH_2                 8.232468e-04 1 1  ON 94
 uuH_3                -1.474348e-03 1 1  ON 95
 uuH_4                -2.698786e-03 1 1  ON 96
 uuH_5                 3.648361e-04 1 1  ON 97
 uuH_6                 2.758942e-03 1 1  ON 98
 uuH_7                 8.683455e-03 1 1  ON 99
 uuH_8                -2.654446e-03 1 1  ON 100
 uuH_9                -4.435049e-03 1 1  ON 101
uuH_10                -3.140730e-03 1 1  ON 102
uuH_11                 2.161760e-03 1 1  ON 103
uuH_12                 3.291634e-04 1 1  ON 104
uuH_13                -4.241494e-04 1 1  ON 105
uuH_14                 6.263785e-04 1 1  ON 106
uuH_15                -3.950003e-04 1 1  ON 107
uuH_16                 2.253902e-03 1 1  ON 108
uuH_17                 2.693468e-04 1 1  ON 109
uuH_18                -2.944034e-03 1 1  ON 110
uuH_19                -1.538432e-03 1 1  ON 111
uuH_20                 5.849647e-03 1 1  ON 112
uuH_21                -3.362012e-03 1 1  ON 113
uuH_22                 1.906939e-03 1 1  ON 114
uuH_23                -6.916499e-03 1 1  ON 115
uuH_24                 4.147507e-03 1 1  ON 116
uuH_25                -1.605572e-03 1 1  ON 117
 udH_0                 2.512883e-05 1 1  ON 118
 udH_1                -9.348033e-05 1 1  ON 119
 udH_2                -6.837001e-05 1 1  ON 120
 udH_3                -2.711683e-03 1 1  ON 121
 udH_4                -2.589290e-03 1 1  ON 122
 udH_5                 3.701507e-04 1 1  ON 123
 udH_6                -9.826625e-04 1 1  ON 124
 udH_7                 3.130976e-03 1 1  ON 125
 udH_8                 4.178018e-04 1 1  ON 126
 udH_9                 1.165320e-03 1 1  ON 127
udH_10                -3.629576e-03 1 1  ON 128
udH_11                 3.924007e-04 1 1  ON 129
udH_12                -2.035493e-04 1 1  ON 130
udH_13                 1.082818e-03 1 1  ON 131
udH_14                 5.925899e-05 1 1  ON 132
udH_15                -1.595586e-04 1 1  ON 133
udH_16                 5.835479e-03 1 1  ON 134
udH_17                -1.369942e-03 1 1  ON 135
udH_18                 1.813266e-03 1 1  ON 136
udH_19                -1.640648e-03 1 1  ON 137
udH_20                -5.079843e-03 1 1  ON 138
udH_21                 1.023898e-04 1 1  ON 139
udH_22                 5.170669e-04 1 1  ON 140
udH_23                 4.545687e-03 1 1  ON 141
udH_24                -5.029339e-04 1 1  ON 142
udH_25                -1.332724e-04 1 1  ON 143
  </optVariables>
   Restore the number of walkers to 1, removing 0 walkers.
</opt>
</optimization-report>
  QMC Execution time = 42 secs

=========================================================
  Start QMCFixedSampleLinearOptimize
  File Root optJ123.s001 append = no 
=========================================================
  Skip QMCDriver::putQMCInfo 
  Resetting Properties of the walkers 1 x 14

=========================================================
  Start VMC
  File Root optJ123.s001 append = no 
=========================================================
Using existing walkers 
  Resetting Properties of the walkers 1 x 14

<vmc function="put">
  qmc_counter=1  my_counter=0
  time step      = 1.5
  blocks         = 100
  steps          = 80
  substeps       = 2
  current        = 0
  target samples = 3.2e+04
  walkers/mpi    = 1

  stepsbetweensamples = 1
  SpinMoves      = no
<parameter name="blocks" condition="int">100</parameter>
<parameter name="blocks_between_recompute" condition="int">0</parameter>
<parameter name="check_properties" condition="int">100</parameter>
<parameter name="checkproperties" condition="int">100</parameter>
<parameter name="current" condition="int">0</parameter>
<parameter name="dmcwalkersperthread" condition="real">8000</parameter>
<parameter name="maxcpusecs" condition="real">3.6e+05</parameter>
<parameter name="record_configs" condition="int">0</parameter>
<parameter name="record_walkers" condition="int">1</parameter>
<parameter name="recordconfigs" condition="int">0</parameter>
<parameter name="recordwalkers" condition="int">1</parameter>
<parameter name="rewind" condition="int">0</parameter>
<parameter name="samples" condition="real">3.2e+04</parameter>
<parameter name="samplesperthread" condition="real">8000</parameter>
<parameter name="spinmass" condition="double">1</parameter>
<parameter name="spinmoves" condition="string">no</parameter>
<parameter name="steps" condition="int">80</parameter>
<parameter name="stepsbetweensamples" condition="int">1</parameter>
<parameter name="store_configs" condition="int">0</parameter>
<parameter name="storeconfigs" condition="int">0</parameter>
<parameter name="sub_steps" condition="int">2</parameter>
<parameter name="substeps" condition="int">2</parameter>
<parameter name="tau" condition="au">1.5</parameter>
<parameter name="time_step" condition="au">1.5</parameter>
<parameter name="timestep" condition="au">1.5</parameter>
<parameter name="use_drift" condition="string">yes</parameter>
<parameter name="usedrift" condition="string">yes</parameter>
<parameter name="walkers" condition="int">1</parameter>
<parameter name="warmup_steps" condition="int">0</parameter>
<parameter name="warmupsteps" condition="int">0</parameter>
  DumpConfig==false Nothing (configurations, state) will be saved.
  Walker Samples are dumped every 1 steps.
</vmc>
    Restarting, cummulative properties:
      energy     = -12.82
      variance   = 0
      r2accepted = 1e-10
      r2proposed = 1e-10
  Set drift_modifier UNR parameter a = 1
  Adding a default LocalEnergyEstimator for the MainEstimator 
 Using QMCCostFunction::QMCCostFunction
  Set drift_modifier UNR parameter a = 1.0000e+00
<optimization-report>
<vmc stage="main" blocks="100">
  Cannot make clones again. Use existing 1 clones
  Initial partition of walkers 0 1 

  Using Particle by Particle moves
  Walker moves with drift
  Total Sample Size   =32000
  Walker distribution on root = 0 1 
  Using Locality Approximation
===== Memory Usage after the buffer registration =====
Available memory on node 0, free + buffers : 92433 MB
Memory footprint by rank 0 on node 0       : 127 MB
==================================================
  Anonymous Buffer size per walker : 21216 Bytes.
MEMORY increase 0 MB VMC::resetRun
====================================================
  SimpleFixedNodeBranch::finalize after a VMC block
    QMC counter        = 1
    time step          = 1.5
    reference energy   = -12.4895
    reference variance = 0.0613458
====================================================
  Execution time = 1.2649e+01
</vmc>
<opt stage="setup">
  <log>
   Reading configurations from h5FileRoot optJ123.s001
  QMCCostFunction is created with 1 threads.
  Using Nonlocal PP in Opt: NonLocalECP
   Number of samples loaded to each thread : 8000 
  VMC Eavg = -1.2421e+01
  VMC Evar = 1.2524e+00
  Total weights = 3.2000e+04
  Execution time = 1.4993e+01
  </log>
</opt>
<opt stage="main" walkers="32000">
  <log>

*****************************************
Building overlap and Hamiltonian matrices
*****************************************

Among totally 144 optimized parameters, largest LM parameter change : 6.3123e+02 at parameter 110

******************************************************************************
Init Cost =  -1.1054e+01    New Cost =  -4.0287e+05  Delta Cost =  -4.0286e+05
******************************************************************************

The new set of parameters is not valid. Revert to the old set!

*****************************************************************************
Applying the update for shift_i =   1.0000e-02     and shift_s =   1.0000e+00
*****************************************************************************
  Execution time = 4.0111e+01
  </log>
  <optVariables href="optJ123.s001.opt.xml">
  eC_0                -1.031706e+00 1 1  ON 0
  eC_1                -9.902459e-01 1 1  ON 1
  eC_2                -8.874465e-01 1 1  ON 2
  eC_3                -7.303978e-01 1 1  ON 3
  eC_4                -5.622434e-01 1 1  ON 4
  eC_5                -4.007755e-01 1 1  ON 5
  eC_6                -2.877997e-01 1 1  ON 6
  eC_7                -1.879260e-01 1 1  ON 7
  eC_8                -1.077806e-01 1 1  ON 8
  eC_9                -5.050361e-02 1 1  ON 9
  eH_0                -2.220836e-01 1 1  ON 10
  eH_1                -2.003878e-01 1 1  ON 11
  eH_2                -1.747718e-01 1 1  ON 12
  eH_3                -1.446830e-01 1 1  ON 13
  eH_4                -1.228098e-01 1 1  ON 14
  eH_5                -1.072245e-01 1 1  ON 15
  eH_6                -7.680305e-02 1 1  ON 16
  eH_7                -5.027771e-02 1 1  ON 17
  eH_8                -2.510689e-02 1 1  ON 18
  eH_9                -7.813519e-03 1 1  ON 19
  uu_0                 4.570616e-01 1 1  ON 20
  uu_1                 3.589118e-01 1 1  ON 21
  uu_2                 2.819567e-01 1 1  ON 22
  uu_3                 2.164284e-01 1 1  ON 23
  uu_4                 1.612432e-01 1 1  ON 24
  uu_5                 1.157033e-01 1 1  ON 25
  uu_6                 7.903817e-02 1 1  ON 26
  uu_7                 5.098402e-02 1 1  ON 27
  uu_8                 2.929756e-02 1 1  ON 28
  uu_9                 1.454981e-02 1 1  ON 29
  ud_0                 7.508773e-01 1 1  ON 30
  ud_1                 5.553614e-01 1 1  ON 31
  ud_2                 4.057547e-01 1 1  ON 32
  ud_3                 2.947065e-01 1 1  ON 33
  ud_4                 2.130917e-01 1 1  ON 34
  ud_5                 1.536052e-01 1 1  ON 35
  ud_6                 1.083349e-01 1 1  ON 36
  ud_7                 7.294099e-02 1 1  ON 37
  ud_8                 4.296328e-02 1 1  ON 38
  ud_9                 2.229999e-02 1 1  ON 39
 uuC_0                 3.291464e-03 1 1  ON 40
 uuC_1                 5.882086e-04 1 1  ON 41
 uuC_2                -7.972797e-03 1 1  ON 42
 uuC_3                -4.189677e-03 1 1  ON 43
 uuC_4                 2.164055e-03 1 1  ON 44
 uuC_5                 2.200207e-04 1 1  ON 45
 uuC_6                -7.100100e-03 1 1  ON 46
 uuC_7                -2.419287e-03 1 1  ON 47
 uuC_8                -7.628893e-03 1 1  ON 48
 uuC_9                 3.834502e-03 1 1  ON 49
uuC_10                -3.438756e-03 1 1  ON 50
uuC_11                 7.572132e-03 1 1  ON 51
uuC_12                 5.130999e-03 1 1  ON 52
uuC_13                 1.953283e-03 1 1  ON 53
uuC_14                -4.346872e-03 1 1  ON 54
uuC_15                -2.061017e-04 1 1  ON 55
uuC_16                -4.214180e-04 1 1  ON 56
uuC_17                 1.165865e-03 1 1  ON 57
uuC_18                 6.592229e-05 1 1  ON 58
uuC_19                -7.009356e-03 1 1  ON 59
uuC_20                -2.186601e-03 1 1  ON 60
uuC_21                 5.906495e-04 1 1  ON 61
uuC_22                 1.748796e-03 1 1  ON 62
uuC_23                 1.796000e-03 1 1  ON 63
uuC_24                -4.108365e-05 1 1  ON 64
uuC_25                -6.413518e-04 1 1  ON 65
 udC_0                -3.457152e-03 1 1  ON 66
 udC_1                -1.458377e-03 1 1  ON 67
 udC_2                 6.687994e-03 1 1  ON 68
 udC_3                 2.885904e-03 1 1  ON 69
 udC_4                -1.702457e-03 1 1  ON 70
 udC_5                -5.416008e-06 1 1  ON 71
 udC_6                 4.684546e-03 1 1  ON 72
 udC_7                -6.682514e-03 1 1  ON 73
 udC_8                 5.250147e-03 1 1  ON 74
 udC_9                 3.962692e-04 1 1  ON 75
udC_10                 1.680766e-03 1 1  ON 76
udC_11                -8.137178e-04 1 1  ON 77
udC_12                -4.508559e-03 1 1  ON 78
udC_13                -4.090560e-03 1 1  ON 79
udC_14                -7.914373e-04 1 1  ON 80
udC_15                 1.126691e-03 1 1  ON 81
udC_16                 8.550657e-03 1 1  ON 82
udC_17                -9.661376e-03 1 1  ON 83
udC_18                 5.517121e-03 1 1  ON 84
udC_19                 3.316652e-03 1 1  ON 85
udC_20                -2.075535e-03 1 1  ON 86
udC_21                 1.399702e-04 1 1  ON 87
udC_22                -1.053709e-03 1 1  ON 88
udC_23                 7.772558e-04 1 1  ON 89
udC_24                -1.520205e-04 1 1  ON 90
udC_25                 3.351278e-04 1 1  ON 91
 uuH_0                -3.867137e-04 1 1  ON 92
 uuH_1                 4.152164e-04 1 1  ON 93
 uuH_2                 8.232468e-04 1 1  ON 94
 uuH_3                -1.474348e-03 1 1  ON 95
 uuH_4                -2.698786e-03 1 1  ON 96
 uuH_5                 3.648361e-04 1 1  ON 97
 uuH_6                 2.758942e-03 1 1  ON 98
 uuH_7                 8.683455e-03 1 1  ON 99
 uuH_8                -2.654446e-03 1 1  ON 100
 uuH_9                -4.435049e-03 1 1  ON 101
uuH_10                -3.140730e-03 1 1  ON 102
uuH_11                 2.161760e-03 1 1  ON 103
uuH_12                 3.291634e-04 1 1  ON 104
uuH_13                -4.241494e-04 1 1  ON 105
uuH_14                 6.263785e-04 1 1  ON 106
uuH_15                -3.950003e-04 1 1  ON 107
uuH_16                 2.253902e-03 1 1  ON 108
uuH_17                 2.693468e-04 1 1  ON 109
uuH_18                -2.944034e-03 1 1  ON 110
uuH_19                -1.538432e-03 1 1  ON 111
uuH_20                 5.849647e-03 1 1  ON 112
uuH_21                -3.362012e-03 1 1  ON 113
uuH_22                 1.906939e-03 1 1  ON 114
uuH_23                -6.916499e-03 1 1  ON 115
uuH_24                 4.147507e-03 1 1  ON 116
uuH_25                -1.605572e-03 1 1  ON 117
 udH_0                 2.512883e-05 1 1  ON 118
 udH_1                -9.348033e-05 1 1  ON 119
 udH_2                -6.837001e-05 1 1  ON 120
 udH_3                -2.711683e-03 1 1  ON 121
 udH_4                -2.589290e-03 1 1  ON 122
 udH_5                 3.701507e-04 1 1  ON 123
 udH_6                -9.826625e-04 1 1  ON 124
 udH_7                 3.130976e-03 1 1  ON 125
 udH_8                 4.178018e-04 1 1  ON 126
 udH_9                 1.165320e-03 1 1  ON 127
udH_10                -3.629576e-03 1 1  ON 128
udH_11                 3.924007e-04 1 1  ON 129
udH_12                -2.035493e-04 1 1  ON 130
udH_13                 1.082818e-03 1 1  ON 131
udH_14                 5.925899e-05 1 1  ON 132
udH_15                -1.595586e-04 1 1  ON 133
udH_16                 5.835479e-03 1 1  ON 134
udH_17                -1.369942e-03 1 1  ON 135
udH_18                 1.813266e-03 1 1  ON 136
udH_19                -1.640648e-03 1 1  ON 137
udH_20                -5.079843e-03 1 1  ON 138
udH_21                 1.023898e-04 1 1  ON 139
udH_22                 5.170669e-04 1 1  ON 140
udH_23                 4.545687e-03 1 1  ON 141
udH_24                -5.029339e-04 1 1  ON 142
udH_25                -1.332724e-04 1 1  ON 143
  </optVariables>
   Restore the number of walkers to 1, removing 0 walkers.
</opt>
</optimization-report>
  QMC Execution time = 40.13 secs

=========================================================
  Start QMCFixedSampleLinearOptimize
  File Root optJ123.s002 append = no 
=========================================================
  Skip QMCDriver::putQMCInfo 
  Resetting Properties of the walkers 1 x 14

=========================================================
  Start VMC
  File Root optJ123.s002 append = no 
=========================================================
Using existing walkers 
  Resetting Properties of the walkers 1 x 14

<vmc function="put">
  qmc_counter=2  my_counter=0
  time step      = 1.5
  blocks         = 100
  steps          = 80
  substeps       = 2
  current        = 0
  target samples = 3.2e+04
  walkers/mpi    = 1

  stepsbetweensamples = 1
  SpinMoves      = no
<parameter name="blocks" condition="int">100</parameter>
<parameter name="blocks_between_recompute" condition="int">0</parameter>
<parameter name="check_properties" condition="int">100</parameter>
<parameter name="checkproperties" condition="int">100</parameter>
<parameter name="current" condition="int">0</parameter>
<parameter name="dmcwalkersperthread" condition="real">8000</parameter>
<parameter name="maxcpusecs" condition="real">3.6e+05</parameter>
<parameter name="record_configs" condition="int">0</parameter>
<parameter name="record_walkers" condition="int">1</parameter>
<parameter name="recordconfigs" condition="int">0</parameter>
<parameter name="recordwalkers" condition="int">1</parameter>
<parameter name="rewind" condition="int">0</parameter>
<parameter name="samples" condition="real">3.2e+04</parameter>
<parameter name="samplesperthread" condition="real">8000</parameter>
<parameter name="spinmass" condition="double">1</parameter>
<parameter name="spinmoves" condition="string">no</parameter>
<parameter name="steps" condition="int">80</parameter>
<parameter name="stepsbetweensamples" condition="int">1</parameter>
<parameter name="store_configs" condition="int">0</parameter>
<parameter name="storeconfigs" condition="int">0</parameter>
<parameter name="sub_steps" condition="int">2</parameter>
<parameter name="substeps" condition="int">2</parameter>
<parameter name="tau" condition="au">1.5</parameter>
<parameter name="time_step" condition="au">1.5</parameter>
<parameter name="timestep" condition="au">1.5</parameter>
<parameter name="use_drift" condition="string">yes</parameter>
<parameter name="usedrift" condition="string">yes</parameter>
<parameter name="walkers" condition="int">1</parameter>
<parameter name="warmup_steps" condition="int">0</parameter>
<parameter name="warmupsteps" condition="int">0</parameter>
  DumpConfig==false Nothing (configurations, state) will be saved.
  Walker Samples are dumped every 1 steps.
</vmc>
    Restarting, cummulative properties:
      energy     = -12.65
      variance   = 0
      r2accepted = 1e-10
      r2proposed = 1e-10
  Set drift_modifier UNR parameter a = 1
  Adding a default LocalEnergyEstimator for the MainEstimator 
 Using QMCCostFunction::QMCCostFunction
  Set drift_modifier UNR parameter a = 1.0000e+00
<optimization-report>
<vmc stage="main" blocks="100">
  Cannot make clones again. Use existing 1 clones
  Initial partition of walkers 0 1 

  Using Particle by Particle moves
  Walker moves with drift
  Total Sample Size   =32000
  Walker distribution on root = 0 1 
  Using Locality Approximation
===== Memory Usage after the buffer registration =====
Available memory on node 0, free + buffers : 92422 MB
Memory footprint by rank 0 on node 0       : 136 MB
==================================================
  Anonymous Buffer size per walker : 21216 Bytes.
MEMORY increase 0 MB VMC::resetRun
====================================================
  SimpleFixedNodeBranch::finalize after a VMC block
    QMC counter        = 2
    time step          = 1.5
    reference energy   = -12.1721
    reference variance = 0.0745856
====================================================
  Execution time = 1.2663e+01
</vmc>
<opt stage="setup">
  <log>
   Reading configurations from h5FileRoot optJ123.s002
  QMCCostFunction is created with 1 threads.
  Using Nonlocal PP in Opt: NonLocalECP
   Number of samples loaded to each thread : 8000 
  VMC Eavg = -1.2428e+01
  VMC Evar = 1.0560e+00
  Total weights = 3.2000e+04
  Execution time = 1.5014e+01
  </log>
</opt>
<opt stage="main" walkers="32000">
  <log>

*****************************************
Building overlap and Hamiltonian matrices
*****************************************

Among totally 144 optimized parameters, largest LM parameter change : 7.2653e-02 at parameter 0

******************************************************************************
Init Cost =  -1.1079e+01    New Cost =  -1.1080e+01  Delta Cost =  -9.0864e-04
******************************************************************************

The new set of parameters is valid. Updating the trial wave function!

*****************************************************************************
Applying the update for shift_i =   1.0000e-02     and shift_s =   2.5000e-01
*****************************************************************************
  Execution time = 4.0111e+01
  </log>
  <optVariables href="optJ123.s002.opt.xml">
  eC_0                -1.104359e+00 1 1  ON 0
  eC_1                -1.031357e+00 1 1  ON 1
  eC_2                -9.153830e-01 1 1  ON 2
  eC_3                -7.535176e-01 1 1  ON 3
  eC_4                -5.790606e-01 1 1  ON 4
  eC_5                -4.059375e-01 1 1  ON 5
  eC_6                -2.934612e-01 1 1  ON 6
  eC_7                -1.910316e-01 1 1  ON 7
  eC_8                -1.108677e-01 1 1  ON 8
  eC_9                -5.393921e-02 1 1  ON 9
  eH_0                -2.293249e-01 1 1  ON 10
  eH_1                -1.977497e-01 1 1  ON 11
  eH_2                -1.753554e-01 1 1  ON 12
  eH_3                -1.404157e-01 1 1  ON 13
  eH_4                -1.114935e-01 1 1  ON 14
  eH_5                -9.562537e-02 1 1  ON 15
  eH_6                -6.753001e-02 1 1  ON 16
  eH_7                -3.967887e-02 1 1  ON 17
  eH_8                -1.759585e-02 1 1  ON 18
  eH_9                -1.938474e-03 1 1  ON 19
  uu_0                 4.458093e-01 1 1  ON 20
  uu_1                 3.489703e-01 1 1  ON 21
  uu_2                 2.764373e-01 1 1  ON 22
  uu_3                 2.118529e-01 1 1  ON 23
  uu_4                 1.582252e-01 1 1  ON 24
  uu_5                 1.131186e-01 1 1  ON 25
  uu_6                 7.646158e-02 1 1  ON 26
  uu_7                 4.882193e-02 1 1  ON 27
  uu_8                 2.820940e-02 1 1  ON 28
  uu_9                 1.277355e-02 1 1  ON 29
  ud_0                 7.499367e-01 1 1  ON 30
  ud_1                 5.529169e-01 1 1  ON 31
  ud_2                 4.064156e-01 1 1  ON 32
  ud_3                 2.967423e-01 1 1  ON 33
  ud_4                 2.161415e-01 1 1  ON 34
  ud_5                 1.560525e-01 1 1  ON 35
  ud_6                 1.109033e-01 1 1  ON 36
  ud_7                 7.594970e-02 1 1  ON 37
  ud_8                 4.501554e-02 1 1  ON 38
  ud_9                 2.287147e-02 1 1  ON 39
 uuC_0                 1.314996e-03 1 1  ON 40
 uuC_1                -2.656245e-03 1 1  ON 41
 uuC_2                -8.941847e-03 1 1  ON 42
 uuC_3                 1.883858e-03 1 1  ON 43
 uuC_4                 7.877237e-03 1 1  ON 44
 uuC_5                 7.614223e-04 1 1  ON 45
 uuC_6                -1.246554e-02 1 1  ON 46
 uuC_7                 3.000817e-03 1 1  ON 47
 uuC_8                -1.998605e-02 1 1  ON 48
 uuC_9                 6.695177e-03 1 1  ON 49
uuC_10                 4.305726e-03 1 1  ON 50
uuC_11                 9.658101e-03 1 1  ON 51
uuC_12                 1.464006e-02 1 1  ON 52
uuC_13                -5.489603e-03 1 1  ON 53
uuC_14                -1.151803e-02 1 1  ON 54
uuC_15                -4.127907e-04 1 1  ON 55
uuC_16                -9.373736e-03 1 1  ON 56
uuC_17                -5.704555e-03 1 1  ON 57
uuC_18                -1.028156e-02 1 1  ON 58
uuC_19                -1.100947e-02 1 1  ON 59
uuC_20                 4.533633e-03 1 1  ON 60
uuC_21                 6.668258e-03 1 1  ON 61
uuC_22                 8.830933e-04 1 1  ON 62
uuC_23                -2.088440e-04 1 1  ON 63
uuC_24                -2.177342e-03 1 1  ON 64
uuC_25                 1.018595e-04 1 1  ON 65
 udC_0                -5.547302e-03 1 1  ON 66
 udC_1                -2.409589e-04 1 1  ON 67
 udC_2                 1.394740e-02 1 1  ON 68
 udC_3                 3.968847e-03 1 1  ON 69
 udC_4                -1.610018e-03 1 1  ON 70
 udC_5                -1.311202e-04 1 1  ON 71
 udC_6                 9.293810e-03 1 1  ON 72
 udC_7                -7.902975e-03 1 1  ON 73
 udC_8                 1.076216e-02 1 1  ON 74
 udC_9                -9.384565e-04 1 1  ON 75
udC_10                 4.394949e-03 1 1  ON 76
udC_11                -7.075960e-03 1 1  ON 77
udC_12                -4.706082e-03 1 1  ON 78
udC_13                -5.937795e-03 1 1  ON 79
udC_14                -3.058018e-03 1 1  ON 80
udC_15                 1.773551e-03 1 1  ON 81
udC_16                 8.140744e-03 1 1  ON 82
udC_17                -1.794543e-02 1 1  ON 83
udC_18                 1.193430e-02 1 1  ON 84
udC_19                 3.337995e-03 1 1  ON 85
udC_20                 4.959279e-04 1 1  ON 86
udC_21                 1.230931e-03 1 1  ON 87
udC_22                -1.986290e-03 1 1  ON 88
udC_23                -7.779156e-04 1 1  ON 89
udC_24                -8.512317e-04 1 1  ON 90
udC_25                 8.752329e-04 1 1  ON 91
 uuH_0                -2.825722e-03 1 1  ON 92
 uuH_1                 2.163271e-03 1 1  ON 93
 uuH_2                 8.651357e-04 1 1  ON 94
 uuH_3                 4.913172e-04 1 1  ON 95
 uuH_4                -2.944791e-03 1 1  ON 96
 uuH_5                -3.709932e-04 1 1  ON 97
 uuH_6                 5.101198e-03 1 1  ON 98
 uuH_7                 8.820710e-03 1 1  ON 99
 uuH_8                -4.903261e-03 1 1  ON 100
 uuH_9                -1.133900e-03 1 1  ON 101
uuH_10                -2.060010e-03 1 1  ON 102
uuH_11                 3.726733e-03 1 1  ON 103
uuH_12                -1.225667e-03 1 1  ON 104
uuH_13                -3.464787e-03 1 1  ON 105
uuH_14                 2.085943e-03 1 1  ON 106
uuH_15                -2.512676e-04 1 1  ON 107
uuH_16                 6.359625e-04 1 1  ON 108
uuH_17                -8.625354e-05 1 1  ON 109
uuH_18                -2.030963e-03 1 1  ON 110
uuH_19                 3.402838e-03 1 1  ON 111
uuH_20                 1.376906e-03 1 1  ON 112
uuH_21                -5.520084e-03 1 1  ON 113
uuH_22                 9.137912e-04 1 1  ON 114
uuH_23                -7.315555e-04 1 1  ON 115
uuH_24                 4.149524e-03 1 1  ON 116
uuH_25                -1.349440e-03 1 1  ON 117
 udH_0                -7.726049e-04 1 1  ON 118
 udH_1                -9.423613e-04 1 1  ON 119
 udH_2                 1.602316e-03 1 1  ON 120
 udH_3                 7.454413e-04 1 1  ON 121
 udH_4                -3.228747e-04 1 1  ON 122
 udH_5                 6.169763e-04 1 1  ON 123
 udH_6                 9.072687e-04 1 1  ON 124
 udH_7                 8.397312e-04 1 1  ON 125
 udH_8                -2.500999e-03 1 1  ON 126
 udH_9                -4.222627e-04 1 1  ON 127
udH_10                 7.818164e-04 1 1  ON 128
udH_11                -1.146706e-05 1 1  ON 129
udH_12                 2.527539e-03 1 1  ON 130
udH_13                -2.382630e-04 1 1  ON 131
udH_14                -1.347893e-03 1 1  ON 132
udH_15                -4.561043e-04 1 1  ON 133
udH_16                 6.618866e-03 1 1  ON 134
udH_17                -3.854775e-03 1 1  ON 135
udH_18                 9.603252e-04 1 1  ON 136
udH_19                -4.174114e-03 1 1  ON 137
udH_20                -5.567475e-03 1 1  ON 138
udH_21                -4.435376e-05 1 1  ON 139
udH_22                 1.515240e-03 1 1  ON 140
udH_23                 5.874494e-03 1 1  ON 141
udH_24                 4.575189e-04 1 1  ON 142
udH_25                -8.799133e-04 1 1  ON 143
  </optVariables>
   Restore the number of walkers to 1, removing 0 walkers.
</opt>
</optimization-report>
  QMC Execution time = 40.16 secs
  Total Execution time = 122.5 secs

=========================================================
  A new xml input file : optJ123.s002.cont.xml
