/global/u2/h/haihan/Research/C2H2/QMCCI/gs_dmc
  Input file(s): qmc.dump.qmc.in-wfj.xml 

=====================================================
                    QMCPACK 3.9.9

       (c) Copyright 2003-  QMCPACK developers

                    Please cite:
 J. Kim et al. J. Phys. Cond. Mat. 30 195901 (2018)
      https://doi.org/10.1088/1361-648X/aab9c3

  Git branch: develop
  Last git commit: a854014790c5309de44bee11aacb72110d1159f0
  Last git commit date: Thu Aug 6 17:11:13 2020 -0400
  Last git commit subject: Merge pull request #2622 from Hyeondeok-Shin/deterministic_test
=====================================================
  Global options 

  Total number of MPI ranks = 256
  Number of MPI groups      = 1
  MPI group ID              = 0
  Number of ranks in group  = 256
  MPI ranks per node        = 4
  OMP 1st level threads     = 1
  OMP nested threading disabled or only 1 thread on the 2nd level

  Precision used in this calculation, see definitions in the manual:
  Base precision      = double
  Full precision      = double

  Structure-of-arrays (SoA) optimization enabled

  Input XML = qmc.dump.qmc.in-wfj.xml

  Project = qmc.dump
  date    = 2021-02-09 16:22:39 PST
  host    = nid05404

 Random Number
 -------------
  Offset for the random number seeds based on time: 847

  Range of prime numbers to use as seeds over processors and threads = 6569-8863


 Particle Set 
 ------------
  Name: ion0
  All the species have the same mass 1
  Particle set size: 4

 Particle Set 
 ------------
  Name: e
  All the species have the same mass 1
  Particle set size: 10

 Wavefunction setup: 
 ------------------- 
  Name: psi0
  LCAO: SoaAtomicBasisSet<MultiQuintic,0>
Reading BasisSet from HDF5 file:qmc.dump.orbs.h5
<input node="atomicBasisSet" name="Gaussian" expandYlm="Gamess" angular="cartesian" elementType="C" normalized="no" type="Numerical" expM="0" />
  AO BasisSet for C
   Angular momentum expanded in cartesian functions x^lx y^ly z^lz according to Gamess
   Grid is created by the input paremters in h5
    Using log grid ri = 1e-06 rf = 100 npts = 1001
   R(n,l,m,s) 0 0 0 0
   R(n,l,m,s) 1 1 0 0
   R(n,l,m,s) 2 0 0 0
   R(n,l,m,s) 3 0 0 0
   R(n,l,m,s) 4 0 0 0
   R(n,l,m,s) 5 0 0 0
   R(n,l,m,s) 6 1 0 0
   R(n,l,m,s) 7 1 0 0
   R(n,l,m,s) 8 1 0 0
   R(n,l,m,s) 9 1 0 0
   R(n,l,m,s) 10 2 0 0
   R(n,l,m,s) 11 2 0 0
   R(n,l,m,s) 12 2 0 0
   R(n,l,m,s) 13 2 0 0
   R(n,l,m,s) 14 3 0 0
   R(n,l,m,s) 15 3 0 0
   R(n,l,m,s) 16 3 0 0
   R(n,l,m,s) 17 4 0 0
   R(n,l,m,s) 18 4 0 0
Expanding Ylm (angular function) according to Gamess using cartesian gaussians
Adding 1 cartesian gaussian orbitals for l= 0
Adding 3 cartesian gaussian orbitals for l= 1
Adding 1 cartesian gaussian orbitals for l= 0
Adding 1 cartesian gaussian orbitals for l= 0
Adding 1 cartesian gaussian orbitals for l= 0
Adding 1 cartesian gaussian orbitals for l= 0
Adding 3 cartesian gaussian orbitals for l= 1
Adding 3 cartesian gaussian orbitals for l= 1
Adding 3 cartesian gaussian orbitals for l= 1
Adding 3 cartesian gaussian orbitals for l= 1
Adding 6 cartesian gaussian orbitals for l= 2
Adding 6 cartesian gaussian orbitals for l= 2
Adding 6 cartesian gaussian orbitals for l= 2
Adding 6 cartesian gaussian orbitals for l= 2
Adding 10 cartesian gaussian orbitals for l= 3
Adding 10 cartesian gaussian orbitals for l= 3
Adding 10 cartesian gaussian orbitals for l= 3
Adding 15 cartesian gaussian orbitals for l= 4
Adding 15 cartesian gaussian orbitals for l= 4
  Setting cutoff radius 7.1924e+15

   Maximum Angular Momentum  = 4
   Number of Radial functors = 19
   Basis size                = 104

<input node="atomicBasisSet" name="Gaussian" expandYlm="Gamess" angular="cartesian" elementType="H" normalized="no" type="Numerical" expM="0" />
  AO BasisSet for H
   Angular momentum expanded in cartesian functions x^lx y^ly z^lz according to Gamess
   Grid is created by the input paremters in h5
    Using log grid ri = 1e-06 rf = 100 npts = 1001
   R(n,l,m,s) 0 0 0 0
   R(n,l,m,s) 1 0 0 0
   R(n,l,m,s) 2 0 0 0
   R(n,l,m,s) 3 0 0 0
   R(n,l,m,s) 4 0 0 0
   R(n,l,m,s) 5 1 0 0
   R(n,l,m,s) 6 1 0 0
   R(n,l,m,s) 7 1 0 0
   R(n,l,m,s) 8 1 0 0
   R(n,l,m,s) 9 2 0 0
   R(n,l,m,s) 10 2 0 0
   R(n,l,m,s) 11 2 0 0
   R(n,l,m,s) 12 3 0 0
   R(n,l,m,s) 13 3 0 0
Expanding Ylm (angular function) according to Gamess using cartesian gaussians
Adding 1 cartesian gaussian orbitals for l= 0
Adding 1 cartesian gaussian orbitals for l= 0
Adding 1 cartesian gaussian orbitals for l= 0
Adding 1 cartesian gaussian orbitals for l= 0
Adding 1 cartesian gaussian orbitals for l= 0
Adding 3 cartesian gaussian orbitals for l= 1
Adding 3 cartesian gaussian orbitals for l= 1
Adding 3 cartesian gaussian orbitals for l= 1
Adding 3 cartesian gaussian orbitals for l= 1
Adding 6 cartesian gaussian orbitals for l= 2
Adding 6 cartesian gaussian orbitals for l= 2
Adding 6 cartesian gaussian orbitals for l= 2
Adding 10 cartesian gaussian orbitals for l= 3
Adding 10 cartesian gaussian orbitals for l= 3
  Setting cutoff radius 9.95675e+11

   Maximum Angular Momentum  = 3
   Number of Radial functors = 14
   Basis size                = 55

  Created SPOSet builder named 'LCAOBSet' of type molecularorbital
Creating SPOSet in SlaterDetBuilder::put(xmlNodePtr cur).
spo_name = spo-up
  Building SPOSet 'spo-up' with 'LCAOBSet' basis set.
Creating SPOSet in SlaterDetBuilder::put(xmlNodePtr cur).
spo_name = spo-dn
  Building SPOSet 'spo-dn' with 'LCAOBSet' basis set.
Using Bryan's algorithm for MultiSlaterDeterminant expansion. 
Creating base determinant (up) for MSD expansion. 
Creating base determinant (down) for MSD expansion. 
Found Multideterminants in H5 File
Found determinant list. 
Reading CI expansion from HDF5:qmc.dump.orbs.h5
 Done reading CIs from H5!!
 Sorting unique CIs
 Done Sorting unique CIs
Found 68767 terms in the MSD expansion.
Norm of ci vector (sum of ci^2): 1
Found 4872 unique up determinants.
Found 4871 unique down determinants.
Number of terms in pairs array: 130
Number of terms in pairs array: 130
CI coefficients are not optimizable. 
  Added a fermionic WaveFunctionComponent SlaterDet

   Jastrow
   -------
    Name: J2   Type: Two-Body   Function: Bspline

    Radial function for species: u - u
     Number of parameters: 10
     Cusp: -0.25
     Cutoff radius: 10

     Name                        Value Type Recompute Use Index
     ---- ---------------------------- ---- --------- --- -----
     uu_0                 3.493817e-01    1         1  ON     0
     uu_1                 1.858147e-01    1         1  ON     1
     uu_2                 7.500968e-02    1         1  ON     2
     uu_3                 3.009433e-03    1         1  ON     3
     uu_4                -4.475891e-02    1         1  ON     4
     uu_5                -7.988229e-02    1         1  ON     5
     uu_6                -1.004675e-01    1         1  ON     6
     uu_7                -1.164636e-01    1         1  ON     7
     uu_8                -1.203504e-01    1         1  ON     8
     uu_9                -1.267802e-01    1         1  ON     9

    Radial function for species: u - d
     Number of parameters: 10
     Cusp: -0.5
     Cutoff radius: 10

     Name                        Value Type Recompute Use Index
     ---- ---------------------------- ---- --------- --- -----
     ud_0                 4.429166e-01    1         1  ON     0
     ud_1                 1.297619e-01    1         1  ON     1
     ud_2                -2.180243e-02    1         1  ON     2
     ud_3                -9.268880e-02    1         1  ON     3
     ud_4                -1.348952e-01    1         1  ON     4
     ud_5                -1.632634e-01    1         1  ON     5
     ud_6                -1.790046e-01    1         1  ON     6
     ud_7                -1.843312e-01    1         1  ON     7
     ud_8                -1.691490e-01    1         1  ON     8
     ud_9                -1.461024e-01    1         1  ON     9


   Jastrow
   -------
    Name: J1   Type: One-Body   Function: Bspline

    Radial function for element: C
     Number of parameters: 10
     Cusp: 0
     Cutoff radius: 10

     Name                        Value Type Recompute Use Index
     ---- ---------------------------- ---- --------- --- -----
     eC_0                -7.349873e-01    1         1  ON     0
     eC_1                -5.901256e-01    1         1  ON     1
     eC_2                -2.991764e-01    1         1  ON     2
     eC_3                -1.172049e-01    1         1  ON     3
     eC_4                -1.031269e-02    1         1  ON     4
     eC_5                 7.661710e-02    1         1  ON     5
     eC_6                 1.327192e-01    1         1  ON     6
     eC_7                 1.833371e-01    1         1  ON     7
     eC_8                 3.090977e-01    1         1  ON     8
     eC_9                 3.550876e-01    1         1  ON     9

    Radial function for element: H
     Number of parameters: 10
     Cusp: 0
     Cutoff radius: 10

     Name                        Value Type Recompute Use Index
     ---- ---------------------------- ---- --------- --- -----
     eH_0                -3.562672e-01    1         1  ON     0
     eH_1                -3.086401e-01    1         1  ON     1
     eH_2                -2.576600e-01    1         1  ON     2
     eH_3                -1.996260e-01    1         1  ON     3
     eH_4                -1.200271e-01    1         1  ON     4
     eH_5                -4.673456e-02    1         1  ON     5
     eH_6                 3.618479e-02    1         1  ON     6
     eH_7                 9.093882e-02    1         1  ON     7
     eH_8                 1.366614e-01    1         1  ON     8
     eH_9                 1.333115e-01    1         1  ON     9


   Jastrow
   -------
    Name: J3   Type: eeI   Function: polynomial

     Ion: C   electron-electron: u - u
      Number of parameters for e-e: 3, for e-I: 3
      Cutoff radius: 5

        Name                        Value Type Recompute Use Index
      ------ ---------------------------- ---- --------- --- -----
       uuC_0                -1.708764e-03    1         1  ON     0
       uuC_1                 1.440289e-03    1         1  ON     1
       uuC_2                 6.285512e-03    1         1  ON     2
       uuC_3                -6.136750e-04    1         1  ON     3
       uuC_4                -1.165150e-03    1         1  ON     4
       uuC_5                -3.224242e-05    1         1  ON     5
       uuC_6                 4.772659e-03    1         1  ON     6
       uuC_7                -6.878079e-03    1         1  ON     7
       uuC_8                 6.552930e-03    1         1  ON     8
       uuC_9                 7.821873e-04    1         1  ON     9
      uuC_10                 8.952006e-04    1         1  ON    10
      uuC_11                -1.505800e-03    1         1  ON    11
      uuC_12                -3.268513e-03    1         1  ON    12
      uuC_13                -1.676831e-03    1         1  ON    13
      uuC_14                 4.925881e-04    1         1  ON    14
      uuC_15                 4.484414e-04    1         1  ON    15
      uuC_16                -5.644934e-03    1         1  ON    16
      uuC_17                -3.136668e-03    1         1  ON    17
      uuC_18                 3.430887e-03    1         1  ON    18
      uuC_19                 2.077787e-03    1         1  ON    19
      uuC_20                 4.776248e-03    1         1  ON    20
      uuC_21                -2.192941e-03    1         1  ON    21
      uuC_22                 7.975021e-06    1         1  ON    22
      uuC_23                -2.306225e-03    1         1  ON    23
      uuC_24                 1.610448e-03    1         1  ON    24
      uuC_25                -3.359265e-04    1         1  ON    25

     Ion: C   electron-electron: u - d
      Number of parameters for e-e: 3, for e-I: 3
      Cutoff radius: 5

        Name                        Value Type Recompute Use Index
      ------ ---------------------------- ---- --------- --- -----
       udC_0                -3.181579e-03    1         1  ON     0
       udC_1                 8.679447e-04    1         1  ON     1
       udC_2                 9.223888e-03    1         1  ON     2
       udC_3                 1.842415e-03    1         1  ON     3
       udC_4                -5.772856e-04    1         1  ON     4
       udC_5                -2.173015e-04    1         1  ON     5
       udC_6                 7.379967e-03    1         1  ON     6
       udC_7                -4.757508e-03    1         1  ON     7
       udC_8                 5.347084e-03    1         1  ON     8
       udC_9                -2.506132e-03    1         1  ON     9
      udC_10                 3.149844e-03    1         1  ON    10
      udC_11                -2.591484e-03    1         1  ON    11
      udC_12                -1.414801e-03    1         1  ON    12
      udC_13                -1.014219e-03    1         1  ON    13
      udC_14                -1.742152e-03    1         1  ON    14
      udC_15                 6.963369e-04    1         1  ON    15
      udC_16                 3.803776e-03    1         1  ON    16
      udC_17                -5.323292e-03    1         1  ON    17
      udC_18                 1.695638e-04    1         1  ON    18
      udC_19                 1.871315e-03    1         1  ON    19
      udC_20                -7.694239e-04    1         1  ON    20
      udC_21                 1.961142e-03    1         1  ON    21
      udC_22                -1.130335e-03    1         1  ON    22
      udC_23                -2.465426e-04    1         1  ON    23
      udC_24                -4.908978e-04    1         1  ON    24
      udC_25                 3.888638e-04    1         1  ON    25

     Ion: H   electron-electron: u - u
      Number of parameters for e-e: 3, for e-I: 3
      Cutoff radius: 5

        Name                        Value Type Recompute Use Index
      ------ ---------------------------- ---- --------- --- -----
       uuH_0                -5.178168e-03    1         1  ON     0
       uuH_1                -3.200746e-03    1         1  ON     1
       uuH_2                 3.512198e-03    1         1  ON     2
       uuH_3                 3.390248e-03    1         1  ON     3
       uuH_4                -3.861921e-04    1         1  ON     4
       uuH_5                 4.480757e-04    1         1  ON     5
       uuH_6                -2.813026e-04    1         1  ON     6
       uuH_7                 3.619010e-03    1         1  ON     7
       uuH_8                -1.570971e-03    1         1  ON     8
       uuH_9                 3.104643e-03    1         1  ON     9
      uuH_10                 2.778409e-03    1         1  ON    10
      uuH_11                 4.071960e-04    1         1  ON    11
      uuH_12                -1.186181e-03    1         1  ON    12
      uuH_13                -1.231156e-03    1         1  ON    13
      uuH_14                 2.585921e-03    1         1  ON    14
      uuH_15                -4.112938e-04    1         1  ON    15
      uuH_16                -1.469252e-03    1         1  ON    16
      uuH_17                 2.204307e-03    1         1  ON    17
      uuH_18                -6.227269e-04    1         1  ON    18
      uuH_19                 2.913909e-03    1         1  ON    19
      uuH_20                -8.945697e-03    1         1  ON    20
      uuH_21                -1.083611e-03    1         1  ON    21
      uuH_22                -1.149144e-04    1         1  ON    22
      uuH_23                 1.091050e-02    1         1  ON    23
      uuH_24                -2.311377e-03    1         1  ON    24
      uuH_25                 4.674672e-04    1         1  ON    25

     Ion: H   electron-electron: u - d
      Number of parameters for e-e: 3, for e-I: 3
      Cutoff radius: 5

        Name                        Value Type Recompute Use Index
      ------ ---------------------------- ---- --------- --- -----
       udH_0                 9.001052e-04    1         1  ON     0
       udH_1                -2.567436e-03    1         1  ON     1
       udH_2                -3.480007e-03    1         1  ON     2
       udH_3                 2.788953e-04    1         1  ON     3
       udH_4                -1.112246e-03    1         1  ON     4
       udH_5                 2.314434e-04    1         1  ON     5
       udH_6                -5.972415e-03    1         1  ON     6
       udH_7                 5.324906e-03    1         1  ON     7
       udH_8                 1.160485e-03    1         1  ON     8
       udH_9                 2.331064e-03    1         1  ON     9
      udH_10                -8.355517e-04    1         1  ON    10
      udH_11                -3.317391e-03    1         1  ON    11
      udH_12                -2.854057e-03    1         1  ON    12
      udH_13                 2.822484e-03    1         1  ON    13
      udH_14                 5.608437e-03    1         1  ON    14
      udH_15                -5.708515e-04    1         1  ON    15
      udH_16                 7.868678e-03    1         1  ON    16
      udH_17                 6.509706e-03    1         1  ON    17
      udH_18                 1.077145e-03    1         1  ON    18
      udH_19                 2.751690e-03    1         1  ON    19
      udH_20                -1.257312e-02    1         1  ON    20
      udH_21                -9.785360e-04    1         1  ON    21
      udH_22                -6.941235e-05    1         1  ON    22
      udH_23                 1.152428e-02    1         1  ON    23
      udH_24                -2.184337e-03    1         1  ON    24
      udH_25                 3.809630e-04    1         1  ON    25

  QMCHamiltonian::addOperator Kinetic to H, physical Hamiltonian 
  QMCHamiltonian::addOperator ElecElec to H, physical Hamiltonian 
QMCHamiltonian::addOperatorType added type coulomb named ElecElec
  QMCHamiltonian::addOperator IonIon to H, physical Hamiltonian 
QMCHamiltonian::addOperatorType added type coulomb named IonIon

  ECPotential builder for pseudopotential 

  Adding pseudopotential for C
   Linear grid  ri=0 rf=10 npts = 10001
    ECPComponentBuilder::buildSemiLocalAndLocal 
    Assuming Hartree unit
   Number of angular momentum channels 2
   Maximum angular momentum channel 1
   Creating a Linear Grid Rmax=1.405
  Using global grid with delta = 0.001
   Making L=1 a local potential with a radial cutoff of 9.999
    Non-local pseudopotential parameters
    Maximum angular mementum = 0
    Number of non-local channels = 1
       l(0)=0
    Cutoff radius = 1.405
    Spherical grids and weights: 
                        1                 0                 0       0.08333333333
                       -1   1.224646799e-16                 0       0.08333333333
             0.4472135955       0.894427191                 0       0.08333333333
            -0.4472135955      0.7236067977      0.5257311121       0.08333333333
             0.4472135955      0.2763932023      0.8506508084       0.08333333333
            -0.4472135955     -0.2763932023      0.8506508084       0.08333333333
             0.4472135955     -0.7236067977      0.5257311121       0.08333333333
            -0.4472135955      -0.894427191   1.095357397e-16       0.08333333333
             0.4472135955     -0.7236067977     -0.5257311121       0.08333333333
            -0.4472135955     -0.2763932023     -0.8506508084       0.08333333333
             0.4472135955      0.2763932023     -0.8506508084       0.08333333333
            -0.4472135955      0.7236067977     -0.5257311121       0.08333333333
    Maximum cutoff radius 1.405

  Adding pseudopotential for H
   Linear grid  ri=0 rf=10 npts = 10001
    ECPComponentBuilder::buildSemiLocalAndLocal 
    Assuming Hartree unit
   Number of angular momentum channels 2
   Maximum angular momentum channel 1
   Creating a Linear Grid Rmax=1e-10
  Using global grid with delta = 0.001
   Making L=1 a local potential with a radial cutoff of 9.999
    Non-local pseudopotential parameters
    Maximum angular mementum = 0
    Number of non-local channels = 1
       l(0)=0
    Cutoff radius = 0.001
    Spherical grids and weights: 
                        1                 0                 0       0.08333333333
                       -1   1.224646799e-16                 0       0.08333333333
             0.4472135955       0.894427191                 0       0.08333333333
            -0.4472135955      0.7236067977      0.5257311121       0.08333333333
             0.4472135955      0.2763932023      0.8506508084       0.08333333333
            -0.4472135955     -0.2763932023      0.8506508084       0.08333333333
             0.4472135955     -0.7236067977      0.5257311121       0.08333333333
            -0.4472135955      -0.894427191   1.095357397e-16       0.08333333333
             0.4472135955     -0.7236067977     -0.5257311121       0.08333333333
            -0.4472135955     -0.2763932023     -0.8506508084       0.08333333333
             0.4472135955      0.2763932023     -0.8506508084       0.08333333333
            -0.4472135955      0.7236067977     -0.5257311121       0.08333333333
    Maximum cutoff radius 0.001
  QMCHamiltonian::addOperator LocalECP to H, physical Hamiltonian 

  Using NonLocalECP potential 
    Maximum grid on a sphere for NonLocalECPotential: 12
  QMCHamiltonian::addOperator NonLocalECP to H, physical Hamiltonian 
QMCHamiltonian::addOperatorType added type pseudo named PseudoPot

  QMCHamiltonian::add2WalkerProperty added
    5 to P::PropertyList 
    0 to P::Collectables 
    starting Index of the observables in P::PropertyList = 9
ParticleSetPool::randomize 1 ParticleSet.
<init source="ion0" target="e">
</init>
  Initialization Execution time = 2.565 secs
=========================================================
 Summary of QMC systems 
=========================================================
ParticleSetPool has: 

  ParticleSet 'e' contains 10 particles :  u(5) d(5)

    u -6.5047681482e-01 -8.2011922163e-02  1.6009492622e+00
    u  2.9931385721e-01  5.5946716158e-01  6.4317977093e-01
    u -3.0539552039e-01 -1.5898963457e-01 -1.8623831851e+00
    u -4.8972176288e-01  1.6551874078e-02 -4.9938500294e-01
    u -1.4243105263e-01 -6.7167616994e-01  2.7277474053e+00
    d  4.9986243305e-02  4.9289951508e-03  3.3427647964e-01
    d  5.2128888630e-01  4.1096755911e-02  1.7464734777e+00
    d -4.9549053690e-01 -6.1177391995e-01 -1.2974567248e+00
    d  3.3982444633e-01 -6.6943398121e-01 -8.4970946637e-01
    d  5.1888260384e-01  2.9119057228e-01 -3.6853720406e+00

  Distance table for dissimilar particles (A-B):
    source: ion0  target: e
    Using structure-of-arrays (SoA) data layout
    Distance computations use open boundary conditions in 3D.

  Distance table for similar particles (A-A):
    source/target: e
    Using structure-of-arrays (SoA) data layout
    Distance computations use open boundary conditions in 3D.


  ParticleSet 'ion0' contains 4 particles :  C(2) H(2)

    C  0.0000000000e+00  0.0000000000e+00  1.1362922364e+00
    C  0.0000000000e+00  0.0000000000e+00 -1.1362922364e+00
    H  0.0000000000e+00  0.0000000000e+00  3.1452599340e+00
    H  0.0000000000e+00  0.0000000000e+00 -3.1452599340e+00

  Distance table for similar particles (A-A):
    source/target: ion0
    Using structure-of-arrays (SoA) data layout
    Distance computations use open boundary conditions in 3D.


  Hamiltonian h0
  Kinetic         Kinetic energy
  ElecElec        CoulombAB source=e

  IonIon          CoulombAA source/target ion0

  LocalECP        LocalECPotential: ion0
  NonLocalECP     NonLocalECPotential: ion0

Loop execution max-interations = 4

=========================================================
  Start QMCFixedSampleLinearOptimize
  File Root qmc.dump.s000 append = no 
=========================================================
  Skip QMCDriver::putQMCInfo 
  Resetting Properties of the walkers 1 x 14
  Adding 1 walkers to 0 existing sets
  Total number of walkers: 2.5600000000e+02
  Total weight: 2.5600000000e+02

=========================================================
  Start VMC
  File Root qmc.dump.s000 append = no 
=========================================================
Resetting walkers
  Using the current 1 walkers.
  Total number of walkers: 2.5600000000e+02
  Total weight: 2.5600000000e+02
  Resetting Properties of the walkers 1 x 14

<vmc function="put">
  qmc_counter=0  my_counter=0
  time step      = 5.0000000000e-01
  blocks         = 20
  steps          = 2
  substeps       = 5
  current        = 0
  target samples = 8.0000000000e+03
  walkers/mpi    = 1

  stepsbetweensamples = 1
  SpinMoves      = no
<parameter name="blocks" condition="int">20</parameter>
<parameter name="blocks_between_recompute" condition="int">0</parameter>
<parameter name="check_properties" condition="int">100</parameter>
<parameter name="checkproperties" condition="int">100</parameter>
<parameter name="current" condition="int">0</parameter>
<parameter name="dmcwalkersperthread" condition="real">3.2000000000e+01</parameter>
<parameter name="maxcpusecs" condition="real">3.6000000000e+05</parameter>
<parameter name="record_configs" condition="int">0</parameter>
<parameter name="record_walkers" condition="int">1</parameter>
<parameter name="recordconfigs" condition="int">0</parameter>
<parameter name="recordwalkers" condition="int">1</parameter>
<parameter name="rewind" condition="int">0</parameter>
<parameter name="samples" condition="real">8.0000000000e+03</parameter>
<parameter name="samplesperthread" condition="real">3.2000000000e+01</parameter>
<parameter name="spinmass" condition="double">1.0000000000e+00</parameter>
<parameter name="spinmoves" condition="string">no</parameter>
<parameter name="steps" condition="int">2</parameter>
<parameter name="stepsbetweensamples" condition="int">1</parameter>
<parameter name="store_configs" condition="int">0</parameter>
<parameter name="storeconfigs" condition="int">0</parameter>
<parameter name="sub_steps" condition="int">5</parameter>
<parameter name="substeps" condition="int">5</parameter>
<parameter name="tau" condition="au">5.0000000000e-01</parameter>
<parameter name="time_step" condition="au">5.0000000000e-01</parameter>
<parameter name="timestep" condition="au">5.0000000000e-01</parameter>
<parameter name="use_drift" condition="string">no</parameter>
<parameter name="usedrift" condition="string">no</parameter>
<parameter name="walkers" condition="int">1</parameter>
<parameter name="warmup_steps" condition="int">2</parameter>
<parameter name="warmupsteps" condition="int">2</parameter>
  DumpConfig==false Nothing (configurations, state) will be saved.
  Walker Samples are dumped every 1 steps.
</vmc>
  Set drift_modifier UNR parameter a = 1.0000000000e+00
 Using QMCCostFunction::QMCCostFunction
 Using Default Cost Function: Cost = <|E-E_ff|^2>
  Set drift_modifier UNR parameter a = 1.0000000000e+00
<optimization-report>
<vmc stage="main" blocks="20">
  Initial partition of walkers 0 1 

  Using Particle by Particle moves
  Walker moves without drift
  Total Sample Size   =8192
  Walker distribution on root = 0 1 
  Using Locality Approximation
===== Memory Usage after the buffer registration =====
Available memory on node 0, free + buffers : 91829 MB
Memory footprint by rank 0 on node 0       : 100 MB
==================================================
  Anonymous Buffer size per walker : 1756552 Bytes.
MEMORY increase 1 MB VMC::resetRun
====================================================
  SimpleFixedNodeBranch::finalize after a VMC block
    QMC counter        = 0
    time step          = 0.5
    reference energy   = -12.4805
    reference variance = 0.16239
====================================================
  Execution time = 5.2083e+00
</vmc>
<opt stage="setup">
  <log>
   Reading configurations from h5FileRoot qmc.dump.s000
  QMCCostFunction is created with 1 threads.
  Using Nonlocal PP in Opt: no
   Number of samples loaded to each thread : 32 
  VMC Eavg = -1.2445e+01
  VMC Evar = 1.7103e-01
  Total weights = 8.1920e+03
  Execution time = 2.0078e+00
  </log>
</opt>
<opt stage="main" walkers="8192">
  <log>

*****************************************
Building overlap and Hamiltonian matrices
*****************************************

Among totally 144 optimized parameters, largest LM parameter change : 1.8992e-02 at parameter 9

******************************************************************************
Init Cost =  -1.1183e+01    New Cost =  -1.1184e+01  Delta Cost =  -1.2912e-03
******************************************************************************

The new set of parameters is valid. Updating the trial wave function!

*****************************************************************************
Applying the update for shift_i =   1.0000e-02     and shift_s =   2.5000e-01
*****************************************************************************
  Execution time = 7.5112e+00
  </log>
  <optVariables href="qmc.dump.s000.opt.xml">
  uu_0                 3.564100e-01 1 1  ON 0
  uu_1                 1.980648e-01 1 1  ON 1
  uu_2                 8.695012e-02 1 1  ON 2
  uu_3                 1.558161e-02 1 1  ON 3
  uu_4                -3.196696e-02 1 1  ON 4
  uu_5                -6.653404e-02 1 1  ON 5
  uu_6                -8.956235e-02 1 1  ON 6
  uu_7                -1.040923e-01 1 1  ON 7
  uu_8                -1.028134e-01 1 1  ON 8
  uu_9                -1.077879e-01 1 1  ON 9
  ud_0                 4.538212e-01 1 1  ON 10
  ud_1                 1.434278e-01 1 1  ON 11
  ud_2                -9.103881e-03 1 1  ON 12
  ud_3                -8.046659e-02 1 1  ON 13
  ud_4                -1.228409e-01 1 1  ON 14
  ud_5                -1.512210e-01 1 1  ON 15
  ud_6                -1.682481e-01 1 1  ON 16
  ud_7                -1.745799e-01 1 1  ON 17
  ud_8                -1.606703e-01 1 1  ON 18
  ud_9                -1.436068e-01 1 1  ON 19
  eC_0                -7.163269e-01 1 1  ON 20
  eC_1                -5.911273e-01 1 1  ON 21
  eC_2                -2.988352e-01 1 1  ON 22
  eC_3                -1.251366e-01 1 1  ON 23
  eC_4                -2.798962e-03 1 1  ON 24
  eC_5                 7.061709e-02 1 1  ON 25
  eC_6                 1.391133e-01 1 1  ON 26
  eC_7                 1.801412e-01 1 1  ON 27
  eC_8                 2.978829e-01 1 1  ON 28
  eC_9                 3.541845e-01 1 1  ON 29
  eH_0                -3.575046e-01 1 1  ON 30
  eH_1                -3.094400e-01 1 1  ON 31
  eH_2                -2.509064e-01 1 1  ON 32
  eH_3                -1.970386e-01 1 1  ON 33
  eH_4                -1.162957e-01 1 1  ON 34
  eH_5                -4.149237e-02 1 1  ON 35
  eH_6                 3.361302e-02 1 1  ON 36
  eH_7                 9.422485e-02 1 1  ON 37
  eH_8                 1.330709e-01 1 1  ON 38
  eH_9                 1.257366e-01 1 1  ON 39
 uuC_0                -1.104502e-03 1 1  ON 40
 uuC_1                 2.065465e-03 1 1  ON 41
 uuC_2                 5.642803e-03 1 1  ON 42
 uuC_3                -3.355174e-03 1 1  ON 43
 uuC_4                -3.642902e-03 1 1  ON 44
 uuC_5                -7.640324e-05 1 1  ON 45
 uuC_6                 3.372652e-03 1 1  ON 46
 uuC_7                -1.898913e-03 1 1  ON 47
 uuC_8                 1.170151e-02 1 1  ON 48
 uuC_9                 1.341384e-03 1 1  ON 49
uuC_10                -3.051944e-03 1 1  ON 50
uuC_11                -5.151006e-03 1 1  ON 51
uuC_12                -6.374149e-03 1 1  ON 52
uuC_13                 2.949210e-04 1 1  ON 53
uuC_14                 3.369949e-03 1 1  ON 54
uuC_15                 4.653835e-04 1 1  ON 55
uuC_16                 6.066006e-05 1 1  ON 56
uuC_17                -8.816365e-04 1 1  ON 57
uuC_18                 8.004175e-03 1 1  ON 58
uuC_19                 2.882487e-03 1 1  ON 59
uuC_20                 2.345791e-05 1 1  ON 60
uuC_21                -2.867300e-03 1 1  ON 61
uuC_22                 6.169136e-05 1 1  ON 62
uuC_23                 8.888741e-04 1 1  ON 63
uuC_24                 6.406578e-04 1 1  ON 64
uuC_25                -1.792014e-04 1 1  ON 65
 udC_0                -5.392737e-03 1 1  ON 66
 udC_1                -7.299383e-05 1 1  ON 67
 udC_2                 9.982129e-03 1 1  ON 68
 udC_3                 3.435383e-03 1 1  ON 69
 udC_4                -7.930375e-04 1 1  ON 70
 udC_5                -4.501034e-04 1 1  ON 71
 udC_6                 7.674125e-03 1 1  ON 72
 udC_7                -3.956240e-03 1 1  ON 73
 udC_8                 8.363119e-03 1 1  ON 74
 udC_9                 6.671921e-04 1 1  ON 75
udC_10                 3.760100e-03 1 1  ON 76
udC_11                -4.582078e-03 1 1  ON 77
udC_12                -4.641112e-03 1 1  ON 78
udC_13                -4.650340e-03 1 1  ON 79
udC_14                 1.972230e-03 1 1  ON 80
udC_15                 4.551779e-04 1 1  ON 81
udC_16                 2.247792e-03 1 1  ON 82
udC_17                -4.475912e-03 1 1  ON 83
udC_18                 3.763993e-03 1 1  ON 84
udC_19                 4.042151e-03 1 1  ON 85
udC_20                -1.226224e-03 1 1  ON 86
udC_21                -1.920686e-03 1 1  ON 87
udC_22                -3.061345e-04 1 1  ON 88
udC_23                 2.437952e-03 1 1  ON 89
udC_24                 6.831186e-04 1 1  ON 90
udC_25                -1.920516e-04 1 1  ON 91
 uuH_0                -1.633443e-03 1 1  ON 92
 uuH_1                 2.357415e-03 1 1  ON 93
 uuH_2                -1.247014e-03 1 1  ON 94
 uuH_3                -7.020806e-04 1 1  ON 95
 uuH_4                -5.189800e-04 1 1  ON 96
 uuH_5                -7.554096e-04 1 1  ON 97
 uuH_6                 1.655711e-03 1 1  ON 98
 uuH_7                 9.549707e-03 1 1  ON 99
 uuH_8                -1.804171e-03 1 1  ON 100
 uuH_9                 3.269752e-03 1 1  ON 101
uuH_10                -6.236543e-04 1 1  ON 102
uuH_11                -2.786093e-03 1 1  ON 103
uuH_12                 2.119280e-04 1 1  ON 104
uuH_13                -3.511427e-03 1 1  ON 105
uuH_14                 4.220616e-03 1 1  ON 106
uuH_15                -9.487881e-04 1 1  ON 107
uuH_16                 7.377961e-04 1 1  ON 108
uuH_17                 3.765598e-03 1 1  ON 109
uuH_18                -2.056019e-03 1 1  ON 110
uuH_19                 2.194331e-03 1 1  ON 111
uuH_20                -6.246365e-03 1 1  ON 112
uuH_21                -2.140636e-04 1 1  ON 113
uuH_22                -4.864891e-04 1 1  ON 114
uuH_23                 9.491295e-03 1 1  ON 115
uuH_24                -2.857714e-03 1 1  ON 116
uuH_25                 8.597694e-04 1 1  ON 117
 udH_0                 1.958695e-03 1 1  ON 118
 udH_1                -1.966576e-03 1 1  ON 119
 udH_2                -4.783903e-03 1 1  ON 120
 udH_3                -6.451566e-04 1 1  ON 121
 udH_4                -1.639389e-03 1 1  ON 122
 udH_5                 3.681029e-04 1 1  ON 123
 udH_6                -6.056229e-03 1 1  ON 124
 udH_7                 6.390268e-03 1 1  ON 125
 udH_8                 3.012846e-03 1 1  ON 126
 udH_9                 1.599013e-03 1 1  ON 127
udH_10                -2.059444e-03 1 1  ON 128
udH_11                -3.966193e-03 1 1  ON 129
udH_12                -6.543306e-03 1 1  ON 130
udH_13                 9.074611e-04 1 1  ON 131
udH_14                 8.621294e-03 1 1  ON 132
udH_15                -4.209671e-04 1 1  ON 133
udH_16                 1.095228e-02 1 1  ON 134
udH_17                 6.536021e-03 1 1  ON 135
udH_18                -1.518105e-03 1 1  ON 136
udH_19                 8.811150e-03 1 1  ON 137
udH_20                -1.014065e-02 1 1  ON 138
udH_21                -1.972040e-03 1 1  ON 139
udH_22                -1.235585e-03 1 1  ON 140
udH_23                 8.665184e-03 1 1  ON 141
udH_24                -9.533462e-04 1 1  ON 142
udH_25                 4.475916e-04 1 1  ON 143
  </optVariables>
   Restore the number of walkers to 1, removing 0 walkers.
</opt>
</optimization-report>
  QMC Execution time = 7.531 secs

=========================================================
  Start QMCFixedSampleLinearOptimize
  File Root qmc.dump.s001 append = no 
=========================================================
  Skip QMCDriver::putQMCInfo 
  Resetting Properties of the walkers 1 x 14

=========================================================
  Start VMC
  File Root qmc.dump.s001 append = no 
=========================================================
Using existing walkers 
  Resetting Properties of the walkers 1 x 14

<vmc function="put">
  qmc_counter=1  my_counter=0
  time step      = 0.5
  blocks         = 20
  steps          = 2
  substeps       = 5
  current        = 0
  target samples = 8000
  walkers/mpi    = 1

  stepsbetweensamples = 1
  SpinMoves      = no
<parameter name="blocks" condition="int">20</parameter>
<parameter name="blocks_between_recompute" condition="int">0</parameter>
<parameter name="check_properties" condition="int">100</parameter>
<parameter name="checkproperties" condition="int">100</parameter>
<parameter name="current" condition="int">0</parameter>
<parameter name="dmcwalkersperthread" condition="real">32</parameter>
<parameter name="maxcpusecs" condition="real">3.6e+05</parameter>
<parameter name="record_configs" condition="int">0</parameter>
<parameter name="record_walkers" condition="int">1</parameter>
<parameter name="recordconfigs" condition="int">0</parameter>
<parameter name="recordwalkers" condition="int">1</parameter>
<parameter name="rewind" condition="int">0</parameter>
<parameter name="samples" condition="real">8000</parameter>
<parameter name="samplesperthread" condition="real">32</parameter>
<parameter name="spinmass" condition="double">1</parameter>
<parameter name="spinmoves" condition="string">no</parameter>
<parameter name="steps" condition="int">2</parameter>
<parameter name="stepsbetweensamples" condition="int">1</parameter>
<parameter name="store_configs" condition="int">0</parameter>
<parameter name="storeconfigs" condition="int">0</parameter>
<parameter name="sub_steps" condition="int">5</parameter>
<parameter name="substeps" condition="int">5</parameter>
<parameter name="tau" condition="au">0.5</parameter>
<parameter name="time_step" condition="au">0.5</parameter>
<parameter name="timestep" condition="au">0.5</parameter>
<parameter name="use_drift" condition="string">no</parameter>
<parameter name="usedrift" condition="string">no</parameter>
<parameter name="walkers" condition="int">1</parameter>
<parameter name="warmup_steps" condition="int">2</parameter>
<parameter name="warmupsteps" condition="int">2</parameter>
  DumpConfig==false Nothing (configurations, state) will be saved.
  Walker Samples are dumped every 1 steps.
</vmc>
    Restarting, cummulative properties:
      energy     = -12.48
      variance   = 0
      r2accepted = 1e-10
      r2proposed = 1e-10
  Set drift_modifier UNR parameter a = 1
 Using QMCCostFunction::QMCCostFunction
 Using Default Cost Function: Cost = <|E-E_ff|^2>
  Set drift_modifier UNR parameter a = 1.0000e+00
  EstimatorManagerBase::add replace LocalEnergy estimator.
<optimization-report>
<vmc stage="main" blocks="20">
  Cannot make clones again. Use existing 1 clones
  Initial partition of walkers 0 1 

  Using Particle by Particle moves
  Walker moves without drift
  Total Sample Size   =8192
  Walker distribution on root = 0 1 
  Using Locality Approximation
===== Memory Usage after the buffer registration =====
Available memory on node 0, free + buffers : 91708 MB
Memory footprint by rank 0 on node 0       : 118 MB
==================================================
  Anonymous Buffer size per walker : 1756552 Bytes.
MEMORY increase 1 MB VMC::resetRun
====================================================
  SimpleFixedNodeBranch::finalize after a VMC block
    QMC counter        = 1
    time step          = 0.5
    reference energy   = -12.4296
    reference variance = 0.145331
====================================================
  Execution time = 4.8378e+00
</vmc>
<opt stage="setup">
  <log>
   Reading configurations from h5FileRoot qmc.dump.s001
  QMCCostFunction is created with 1 threads.
  Using Nonlocal PP in Opt: no
   Number of samples loaded to each thread : 32 
  VMC Eavg = -1.2439e+01
  VMC Evar = 1.6749e-01
  Total weights = 8.1920e+03
  Execution time = 2.0251e+00
  </log>
</opt>
<opt stage="main" walkers="8192">
  <log>

*****************************************
Building overlap and Hamiltonian matrices
*****************************************

Among totally 144 optimized parameters, largest LM parameter change : 4.2258e-02 at parameter 29

******************************************************************************
Init Cost =  -1.1178e+01    New Cost =  -1.1180e+01  Delta Cost =  -1.3491e-03
******************************************************************************

The new set of parameters is valid. Updating the trial wave function!

*****************************************************************************
Applying the update for shift_i =   1.0000e-02     and shift_s =   6.2500e-02
*****************************************************************************
  Execution time = 6.9383e+00
  </log>
  <optVariables href="qmc.dump.s001.opt.xml">
  uu_0                 3.587225e-01 1 1  ON 0
  uu_1                 1.911639e-01 1 1  ON 1
  uu_2                 7.980829e-02 1 1  ON 2
  uu_3                 5.160536e-03 1 1  ON 3
  uu_4                -3.876905e-02 1 1  ON 4
  uu_5                -7.108563e-02 1 1  ON 5
  uu_6                -9.541262e-02 1 1  ON 6
  uu_7                -1.056489e-01 1 1  ON 7
  uu_8                -9.683509e-02 1 1  ON 8
  uu_9                -7.498455e-02 1 1  ON 9
  ud_0                 4.533974e-01 1 1  ON 10
  ud_1                 1.330825e-01 1 1  ON 11
  ud_2                -1.417911e-02 1 1  ON 12
  ud_3                -8.620203e-02 1 1  ON 13
  ud_4                -1.303721e-01 1 1  ON 14
  ud_5                -1.611261e-01 1 1  ON 15
  ud_6                -1.812308e-01 1 1  ON 16
  ud_7                -1.941598e-01 1 1  ON 17
  ud_8                -1.853778e-01 1 1  ON 18
  ud_9                -1.574959e-01 1 1  ON 19
  eC_0                -7.232508e-01 1 1  ON 20
  eC_1                -6.043857e-01 1 1  ON 21
  eC_2                -3.147225e-01 1 1  ON 22
  eC_3                -1.343996e-01 1 1  ON 23
  eC_4                -2.228434e-02 1 1  ON 24
  eC_5                 5.615992e-02 1 1  ON 25
  eC_6                 1.206913e-01 1 1  ON 26
  eC_7                 1.662933e-01 1 1  ON 27
  eC_8                 3.067056e-01 1 1  ON 28
  eC_9                 3.964421e-01 1 1  ON 29
  eH_0                -3.762567e-01 1 1  ON 30
  eH_1                -3.089139e-01 1 1  ON 31
  eH_2                -2.621868e-01 1 1  ON 32
  eH_3                -2.039655e-01 1 1  ON 33
  eH_4                -1.203946e-01 1 1  ON 34
  eH_5                -5.119702e-02 1 1  ON 35
  eH_6                 3.769711e-02 1 1  ON 36
  eH_7                 1.037066e-01 1 1  ON 37
  eH_8                 1.330373e-01 1 1  ON 38
  eH_9                 9.393329e-02 1 1  ON 39
 uuC_0                -1.129933e-03 1 1  ON 40
 uuC_1                -1.574899e-03 1 1  ON 41
 uuC_2                 4.805646e-03 1 1  ON 42
 uuC_3                -2.619809e-03 1 1  ON 43
 uuC_4                -3.910285e-03 1 1  ON 44
 uuC_5                 3.563903e-04 1 1  ON 45
 uuC_6                -5.109208e-03 1 1  ON 46
 uuC_7                 4.195480e-03 1 1  ON 47
 uuC_8                 1.475842e-02 1 1  ON 48
 uuC_9                 5.015273e-03 1 1  ON 49
uuC_10                -2.132753e-03 1 1  ON 50
uuC_11                -9.262256e-03 1 1  ON 51
uuC_12                -7.786449e-03 1 1  ON 52
uuC_13                 2.641678e-03 1 1  ON 53
uuC_14                 5.988880e-03 1 1  ON 54
uuC_15                 3.548239e-04 1 1  ON 55
uuC_16                -5.958708e-03 1 1  ON 56
uuC_17                 6.187040e-03 1 1  ON 57
uuC_18                 8.668743e-03 1 1  ON 58
uuC_19                 3.617139e-03 1 1  ON 59
uuC_20                -1.386954e-03 1 1  ON 60
uuC_21                -3.542798e-03 1 1  ON 61
uuC_22                 3.610917e-05 1 1  ON 62
uuC_23                 1.711785e-03 1 1  ON 63
uuC_24                 7.074398e-04 1 1  ON 64
uuC_25                -1.385967e-04 1 1  ON 65
 udC_0                -1.729947e-03 1 1  ON 66
 udC_1                -8.036105e-04 1 1  ON 67
 udC_2                 6.341426e-03 1 1  ON 68
 udC_3                -1.991948e-04 1 1  ON 69
 udC_4                -1.247506e-03 1 1  ON 70
 udC_5                -1.585272e-04 1 1  ON 71
 udC_6                -7.665213e-04 1 1  ON 72
 udC_7                 6.890480e-04 1 1  ON 73
 udC_8                 1.125199e-02 1 1  ON 74
 udC_9                 1.614008e-03 1 1  ON 75
udC_10                 1.460602e-03 1 1  ON 76
udC_11                -7.909692e-03 1 1  ON 77
udC_12                -4.253875e-03 1 1  ON 78
udC_13                 4.970991e-03 1 1  ON 79
udC_14                 3.807724e-03 1 1  ON 80
udC_15                 1.661274e-04 1 1  ON 81
udC_16                -4.278345e-03 1 1  ON 82
udC_17                 7.469373e-03 1 1  ON 83
udC_18                 7.053851e-03 1 1  ON 84
udC_19                 9.637595e-04 1 1  ON 85
udC_20                -5.650072e-03 1 1  ON 86
udC_21                -2.355996e-03 1 1  ON 87
udC_22                 4.053735e-04 1 1  ON 88
udC_23                 4.390889e-03 1 1  ON 89
udC_24                 2.387345e-04 1 1  ON 90
udC_25                -2.559731e-04 1 1  ON 91
 uuH_0                -1.319865e-03 1 1  ON 92
 uuH_1                 3.548730e-04 1 1  ON 93
 uuH_2                -2.132203e-03 1 1  ON 94
 uuH_3                 1.854351e-04 1 1  ON 95
 uuH_4                -2.734129e-03 1 1  ON 96
 uuH_5                 5.760452e-04 1 1  ON 97
 uuH_6                 4.599561e-03 1 1  ON 98
 uuH_7                 1.786550e-02 1 1  ON 99
 uuH_8                -6.981392e-03 1 1  ON 100
 uuH_9                -5.250925e-03 1 1  ON 101
uuH_10                -3.720683e-03 1 1  ON 102
uuH_11                 1.877630e-03 1 1  ON 103
uuH_12                 3.783567e-04 1 1  ON 104
uuH_13                -1.030336e-03 1 1  ON 105
uuH_14                 4.703699e-03 1 1  ON 106
uuH_15                -1.098149e-03 1 1  ON 107
uuH_16                 4.570740e-03 1 1  ON 108
uuH_17                 5.973558e-03 1 1  ON 109
uuH_18                -2.689253e-03 1 1  ON 110
uuH_19                 1.990838e-03 1 1  ON 111
uuH_20                 1.379133e-03 1 1  ON 112
uuH_21                -8.043521e-03 1 1  ON 113
uuH_22                 1.797274e-03 1 1  ON 114
uuH_23                -1.788702e-03 1 1  ON 115
uuH_24                 5.915260e-03 1 1  ON 116
uuH_25                -1.744361e-03 1 1  ON 117
 udH_0                 2.680007e-03 1 1  ON 118
 udH_1                -1.375633e-03 1 1  ON 119
 udH_2                -6.066127e-03 1 1  ON 120
 udH_3                -2.201569e-03 1 1  ON 121
 udH_4                -2.493459e-03 1 1  ON 122
 udH_5                 5.138735e-04 1 1  ON 123
 udH_6                -5.238798e-03 1 1  ON 124
 udH_7                 1.084643e-02 1 1  ON 125
 udH_8                -8.537402e-05 1 1  ON 126
 udH_9                -6.563093e-04 1 1  ON 127
udH_10                -4.682650e-03 1 1  ON 128
udH_11                -1.741141e-03 1 1  ON 129
udH_12                -3.230975e-03 1 1  ON 130
udH_13                 3.622877e-03 1 1  ON 131
udH_14                 7.062755e-03 1 1  ON 132
udH_15                -9.227386e-04 1 1  ON 133
udH_16                 1.321010e-02 1 1  ON 134
udH_17                 9.192981e-03 1 1  ON 135
udH_18                -4.641700e-03 1 1  ON 136
udH_19                 4.251447e-03 1 1  ON 137
udH_20                -1.205360e-02 1 1  ON 138
udH_21                -1.046735e-03 1 1  ON 139
udH_22                 3.430163e-05 1 1  ON 140
udH_23                 9.846592e-03 1 1  ON 141
udH_24                -1.385080e-03 1 1  ON 142
udH_25                 7.519127e-05 1 1  ON 143
  </optVariables>
   Restore the number of walkers to 1, removing 0 walkers.
</opt>
</optimization-report>
  QMC Execution time = 6.955 secs

=========================================================
  Start QMCFixedSampleLinearOptimize
  File Root qmc.dump.s002 append = no 
=========================================================
  Skip QMCDriver::putQMCInfo 
  Resetting Properties of the walkers 1 x 14

=========================================================
  Start VMC
  File Root qmc.dump.s002 append = no 
=========================================================
Using existing walkers 
  Resetting Properties of the walkers 1 x 14

<vmc function="put">
  qmc_counter=2  my_counter=0
  time step      = 0.5
  blocks         = 20
  steps          = 2
  substeps       = 5
  current        = 0
  target samples = 8000
  walkers/mpi    = 1

  stepsbetweensamples = 1
  SpinMoves      = no
<parameter name="blocks" condition="int">20</parameter>
<parameter name="blocks_between_recompute" condition="int">0</parameter>
<parameter name="check_properties" condition="int">100</parameter>
<parameter name="checkproperties" condition="int">100</parameter>
<parameter name="current" condition="int">0</parameter>
<parameter name="dmcwalkersperthread" condition="real">32</parameter>
<parameter name="maxcpusecs" condition="real">3.6e+05</parameter>
<parameter name="record_configs" condition="int">0</parameter>
<parameter name="record_walkers" condition="int">1</parameter>
<parameter name="recordconfigs" condition="int">0</parameter>
<parameter name="recordwalkers" condition="int">1</parameter>
<parameter name="rewind" condition="int">0</parameter>
<parameter name="samples" condition="real">8000</parameter>
<parameter name="samplesperthread" condition="real">32</parameter>
<parameter name="spinmass" condition="double">1</parameter>
<parameter name="spinmoves" condition="string">no</parameter>
<parameter name="steps" condition="int">2</parameter>
<parameter name="stepsbetweensamples" condition="int">1</parameter>
<parameter name="store_configs" condition="int">0</parameter>
<parameter name="storeconfigs" condition="int">0</parameter>
<parameter name="sub_steps" condition="int">5</parameter>
<parameter name="substeps" condition="int">5</parameter>
<parameter name="tau" condition="au">0.5</parameter>
<parameter name="time_step" condition="au">0.5</parameter>
<parameter name="timestep" condition="au">0.5</parameter>
<parameter name="use_drift" condition="string">no</parameter>
<parameter name="usedrift" condition="string">no</parameter>
<parameter name="walkers" condition="int">1</parameter>
<parameter name="warmup_steps" condition="int">2</parameter>
<parameter name="warmupsteps" condition="int">2</parameter>
  DumpConfig==false Nothing (configurations, state) will be saved.
  Walker Samples are dumped every 1 steps.
</vmc>
    Restarting, cummulative properties:
      energy     = -12.46
      variance   = 0
      r2accepted = 1e-10
      r2proposed = 1e-10
  Set drift_modifier UNR parameter a = 1
 Using QMCCostFunction::QMCCostFunction
 Using Default Cost Function: Cost = <|E-E_ff|^2>
  Set drift_modifier UNR parameter a = 1.0000e+00
  EstimatorManagerBase::add replace LocalEnergy estimator.
<optimization-report>
<vmc stage="main" blocks="20">
  Cannot make clones again. Use existing 1 clones
  Initial partition of walkers 0 1 

  Using Particle by Particle moves
  Walker moves without drift
  Total Sample Size   =8192
  Walker distribution on root = 0 1 
  Using Locality Approximation
===== Memory Usage after the buffer registration =====
Available memory on node 0, free + buffers : 91711 MB
Memory footprint by rank 0 on node 0       : 118 MB
==================================================
  Anonymous Buffer size per walker : 1756552 Bytes.
MEMORY increase 1 MB VMC::resetRun
====================================================
  SimpleFixedNodeBranch::finalize after a VMC block
    QMC counter        = 2
    time step          = 0.5
    reference energy   = -12.4451
    reference variance = 0.103522
====================================================
  Execution time = 4.8593e+00
</vmc>
<opt stage="setup">
  <log>
   Reading configurations from h5FileRoot qmc.dump.s002
  QMCCostFunction is created with 1 threads.
  Using Nonlocal PP in Opt: no
   Number of samples loaded to each thread : 32 
  VMC Eavg = -1.2442e+01
  VMC Evar = 1.7650e-01
  Total weights = 8.1920e+03
  Execution time = 2.0256e+00
  </log>
</opt>
<opt stage="main" walkers="8192">
  <log>

*****************************************
Building overlap and Hamiltonian matrices
*****************************************

Among totally 144 optimized parameters, largest LM parameter change : 4.3068e-02 at parameter 20

******************************************************************************
Init Cost =  -1.1180e+01    New Cost =  -1.1182e+01  Delta Cost =  -2.3248e-03
******************************************************************************

The new set of parameters is valid. Updating the trial wave function!

*****************************************************************************
Applying the update for shift_i =   1.0000e-02     and shift_s =   1.5625e-02
*****************************************************************************
  Execution time = 6.9602e+00
  </log>
  <optVariables href="qmc.dump.s002.opt.xml">
  uu_0                 3.748739e-01 1 1  ON 0
  uu_1                 2.089805e-01 1 1  ON 1
  uu_2                 9.573163e-02 1 1  ON 2
  uu_3                 2.310488e-02 1 1  ON 3
  uu_4                -2.193168e-02 1 1  ON 4
  uu_5                -5.167851e-02 1 1  ON 5
  uu_6                -7.408417e-02 1 1  ON 6
  uu_7                -8.544908e-02 1 1  ON 7
  uu_8                -8.649581e-02 1 1  ON 8
  uu_9                -8.964651e-02 1 1  ON 9
  ud_0                 4.752575e-01 1 1  ON 10
  ud_1                 1.633700e-01 1 1  ON 11
  ud_2                 8.844214e-03 1 1  ON 12
  ud_3                -6.114664e-02 1 1  ON 13
  ud_4                -1.112548e-01 1 1  ON 14
  ud_5                -1.474037e-01 1 1  ON 15
  ud_6                -1.731443e-01 1 1  ON 16
  ud_7                -1.814600e-01 1 1  ON 17
  ud_8                -1.778887e-01 1 1  ON 18
  ud_9                -1.571830e-01 1 1  ON 19
  eC_0                -7.663190e-01 1 1  ON 20
  eC_1                -6.279184e-01 1 1  ON 21
  eC_2                -3.218590e-01 1 1  ON 22
  eC_3                -1.314629e-01 1 1  ON 23
  eC_4                -1.471277e-02 1 1  ON 24
  eC_5                 7.431929e-02 1 1  ON 25
  eC_6                 1.357301e-01 1 1  ON 26
  eC_7                 1.909380e-01 1 1  ON 27
  eC_8                 3.109649e-01 1 1  ON 28
  eC_9                 3.976025e-01 1 1  ON 29
  eH_0                -3.710637e-01 1 1  ON 30
  eH_1                -3.182749e-01 1 1  ON 31
  eH_2                -2.717769e-01 1 1  ON 32
  eH_3                -2.106742e-01 1 1  ON 33
  eH_4                -1.259920e-01 1 1  ON 34
  eH_5                -4.843582e-02 1 1  ON 35
  eH_6                 3.429470e-02 1 1  ON 36
  eH_7                 9.230985e-02 1 1  ON 37
  eH_8                 1.326475e-01 1 1  ON 38
  eH_9                 1.164223e-01 1 1  ON 39
 uuC_0                -1.021267e-03 1 1  ON 40
 uuC_1                 1.969757e-03 1 1  ON 41
 uuC_2                 7.606739e-03 1 1  ON 42
 uuC_3                -3.522004e-03 1 1  ON 43
 uuC_4                -2.523132e-03 1 1  ON 44
 uuC_5                -6.077144e-05 1 1  ON 45
 uuC_6                 1.033961e-03 1 1  ON 46
 uuC_7                 8.354545e-04 1 1  ON 47
 uuC_8                 1.820240e-02 1 1  ON 48
 uuC_9                 2.504377e-03 1 1  ON 49
uuC_10                -9.620105e-04 1 1  ON 50
uuC_11                -1.237914e-02 1 1  ON 51
uuC_12                -7.455496e-03 1 1  ON 52
uuC_13                 2.141539e-03 1 1  ON 53
uuC_14                 6.589396e-03 1 1  ON 54
uuC_15                 9.525300e-05 1 1  ON 55
uuC_16                -1.099661e-02 1 1  ON 56
uuC_17                 5.857784e-03 1 1  ON 57
uuC_18                 1.330954e-02 1 1  ON 58
uuC_19                 1.610594e-03 1 1  ON 59
uuC_20                 4.140266e-03 1 1  ON 60
uuC_21                -6.632414e-03 1 1  ON 61
uuC_22                 1.241948e-03 1 1  ON 62
uuC_23                -1.859968e-03 1 1  ON 63
uuC_24                 2.876335e-03 1 1  ON 64
uuC_25                -9.008056e-04 1 1  ON 65
 udC_0                -4.593118e-03 1 1  ON 66
 udC_1                 3.175793e-03 1 1  ON 67
 udC_2                 1.247639e-02 1 1  ON 68
 udC_3                 1.299075e-03 1 1  ON 69
 udC_4                -2.012108e-03 1 1  ON 70
 udC_5                -6.567220e-04 1 1  ON 71
 udC_6                 1.414323e-02 1 1  ON 72
 udC_7                -6.926034e-03 1 1  ON 73
 udC_8                 1.345532e-02 1 1  ON 74
 udC_9                -4.013792e-03 1 1  ON 75
udC_10                 1.816166e-03 1 1  ON 76
udC_11                -5.871651e-03 1 1  ON 77
udC_12                -5.680157e-03 1 1  ON 78
udC_13                 4.229181e-04 1 1  ON 79
udC_14                 3.038817e-03 1 1  ON 80
udC_15                 3.343680e-04 1 1  ON 81
udC_16                 4.390552e-03 1 1  ON 82
udC_17                 3.899580e-04 1 1  ON 83
udC_18                 3.163815e-03 1 1  ON 84
udC_19                 2.874875e-03 1 1  ON 85
udC_20                -2.881554e-03 1 1  ON 86
udC_21                -1.044624e-03 1 1  ON 87
udC_22                 2.790118e-05 1 1  ON 88
udC_23                 2.060696e-03 1 1  ON 89
udC_24                -1.196465e-05 1 1  ON 90
udC_25                -1.966311e-04 1 1  ON 91
 uuH_0                -1.574616e-03 1 1  ON 92
 uuH_1                 3.128190e-03 1 1  ON 93
 uuH_2                -3.071447e-03 1 1  ON 94
 uuH_3                -4.832345e-03 1 1  ON 95
 uuH_4                -1.870764e-03 1 1  ON 96
 uuH_5                 1.657538e-03 1 1  ON 97
 uuH_6                -1.412014e-03 1 1  ON 98
 uuH_7                 1.503368e-02 1 1  ON 99
 uuH_8                -3.287946e-03 1 1  ON 100
 uuH_9                -2.990137e-03 1 1  ON 101
uuH_10                -5.864637e-03 1 1  ON 102
uuH_11                 2.216274e-03 1 1  ON 103
uuH_12                -1.646630e-03 1 1  ON 104
uuH_13                 1.570043e-03 1 1  ON 105
uuH_14                 2.634714e-03 1 1  ON 106
uuH_15                -8.053898e-05 1 1  ON 107
uuH_16                 3.363861e-03 1 1  ON 108
uuH_17                 4.281593e-03 1 1  ON 109
uuH_18                 4.364195e-05 1 1  ON 110
uuH_19                 3.904861e-03 1 1  ON 111
uuH_20                -1.771588e-03 1 1  ON 112
uuH_21                -4.772626e-03 1 1  ON 113
uuH_22                 2.637086e-04 1 1  ON 114
uuH_23                 1.916069e-03 1 1  ON 115
uuH_24                 2.596985e-03 1 1  ON 116
uuH_25                -6.756661e-04 1 1  ON 117
 udH_0                 2.263517e-03 1 1  ON 118
 udH_1                -9.054110e-04 1 1  ON 119
 udH_2                -4.270721e-03 1 1  ON 120
 udH_3                -2.556920e-03 1 1  ON 121
 udH_4                -3.600582e-03 1 1  ON 122
 udH_5                 4.451971e-04 1 1  ON 123
 udH_6                -4.205328e-03 1 1  ON 124
 udH_7                 6.985207e-03 1 1  ON 125
 udH_8                 5.347804e-03 1 1  ON 126
 udH_9                -1.484029e-04 1 1  ON 127
udH_10                -4.884415e-03 1 1  ON 128
udH_11                -1.935441e-03 1 1  ON 129
udH_12                -9.028198e-03 1 1  ON 130
udH_13                 3.094538e-03 1 1  ON 131
udH_14                 1.044678e-02 1 1  ON 132
udH_15                -3.821552e-04 1 1  ON 133
udH_16                 7.477698e-03 1 1  ON 134
udH_17                 1.169353e-02 1 1  ON 135
udH_18                -6.059014e-03 1 1  ON 136
udH_19                 1.187785e-02 1 1  ON 137
udH_20                -6.538720e-03 1 1  ON 138
udH_21                -3.280980e-03 1 1  ON 139
udH_22                -1.305665e-03 1 1  ON 140
udH_23                 5.202283e-03 1 1  ON 141
udH_24                 2.247238e-04 1 1  ON 142
udH_25                 1.994594e-04 1 1  ON 143
  </optVariables>
   Restore the number of walkers to 1, removing 0 walkers.
</opt>
</optimization-report>
  QMC Execution time = 6.979 secs

=========================================================
  Start QMCFixedSampleLinearOptimize
  File Root qmc.dump.s003 append = no 
=========================================================
  Skip QMCDriver::putQMCInfo 
  Resetting Properties of the walkers 1 x 14

=========================================================
  Start VMC
  File Root qmc.dump.s003 append = no 
=========================================================
Using existing walkers 
  Resetting Properties of the walkers 1 x 14

<vmc function="put">
  qmc_counter=3  my_counter=0
  time step      = 0.5
  blocks         = 20
  steps          = 2
  substeps       = 5
  current        = 0
  target samples = 8000
  walkers/mpi    = 1

  stepsbetweensamples = 1
  SpinMoves      = no
<parameter name="blocks" condition="int">20</parameter>
<parameter name="blocks_between_recompute" condition="int">0</parameter>
<parameter name="check_properties" condition="int">100</parameter>
<parameter name="checkproperties" condition="int">100</parameter>
<parameter name="current" condition="int">0</parameter>
<parameter name="dmcwalkersperthread" condition="real">32</parameter>
<parameter name="maxcpusecs" condition="real">3.6e+05</parameter>
<parameter name="record_configs" condition="int">0</parameter>
<parameter name="record_walkers" condition="int">1</parameter>
<parameter name="recordconfigs" condition="int">0</parameter>
<parameter name="recordwalkers" condition="int">1</parameter>
<parameter name="rewind" condition="int">0</parameter>
<parameter name="samples" condition="real">8000</parameter>
<parameter name="samplesperthread" condition="real">32</parameter>
<parameter name="spinmass" condition="double">1</parameter>
<parameter name="spinmoves" condition="string">no</parameter>
<parameter name="steps" condition="int">2</parameter>
<parameter name="stepsbetweensamples" condition="int">1</parameter>
<parameter name="store_configs" condition="int">0</parameter>
<parameter name="storeconfigs" condition="int">0</parameter>
<parameter name="sub_steps" condition="int">5</parameter>
<parameter name="substeps" condition="int">5</parameter>
<parameter name="tau" condition="au">0.5</parameter>
<parameter name="time_step" condition="au">0.5</parameter>
<parameter name="timestep" condition="au">0.5</parameter>
<parameter name="use_drift" condition="string">no</parameter>
<parameter name="usedrift" condition="string">no</parameter>
<parameter name="walkers" condition="int">1</parameter>
<parameter name="warmup_steps" condition="int">2</parameter>
<parameter name="warmupsteps" condition="int">2</parameter>
  DumpConfig==false Nothing (configurations, state) will be saved.
  Walker Samples are dumped every 1 steps.
</vmc>
    Restarting, cummulative properties:
      energy     = -12.45
      variance   = 0
      r2accepted = 1e-10
      r2proposed = 1e-10
  Set drift_modifier UNR parameter a = 1
 Using QMCCostFunction::QMCCostFunction
 Using Default Cost Function: Cost = <|E-E_ff|^2>
  Set drift_modifier UNR parameter a = 1.0000e+00
  EstimatorManagerBase::add replace LocalEnergy estimator.
<optimization-report>
<vmc stage="main" blocks="20">
  Cannot make clones again. Use existing 1 clones
  Initial partition of walkers 0 1 

  Using Particle by Particle moves
  Walker moves without drift
  Total Sample Size   =8192
  Walker distribution on root = 0 1 
  Using Locality Approximation
===== Memory Usage after the buffer registration =====
Available memory on node 0, free + buffers : 91711 MB
Memory footprint by rank 0 on node 0       : 119 MB
==================================================
  Anonymous Buffer size per walker : 1756552 Bytes.
MEMORY increase 1 MB VMC::resetRun
====================================================
  SimpleFixedNodeBranch::finalize after a VMC block
    QMC counter        = 3
    time step          = 0.5
    reference energy   = -12.4435
    reference variance = 0.0942762
====================================================
  Execution time = 4.8367e+00
</vmc>
<opt stage="setup">
  <log>
   Reading configurations from h5FileRoot qmc.dump.s003
  QMCCostFunction is created with 1 threads.
  Using Nonlocal PP in Opt: no
   Number of samples loaded to each thread : 32 
  VMC Eavg = -1.2448e+01
  VMC Evar = 1.6454e-01
  Total weights = 8.1920e+03
  Execution time = 2.0930e+00
  </log>
</opt>
<opt stage="main" walkers="8192">
  <log>

*****************************************
Building overlap and Hamiltonian matrices
*****************************************

Among totally 144 optimized parameters, largest LM parameter change : 3.5902e-02 at parameter 26

******************************************************************************
Init Cost =  -1.1186e+01    New Cost =  -1.1189e+01  Delta Cost =  -2.5833e-03
******************************************************************************

The new set of parameters is valid. Updating the trial wave function!

*****************************************************************************
Applying the update for shift_i =   1.0000e-02     and shift_s =   3.9062e-03
*****************************************************************************
  Execution time = 7.0060e+00
  </log>
  <optVariables href="qmc.dump.s003.opt.xml">
  uu_0                 3.821117e-01 1 1  ON 0
  uu_1                 2.101439e-01 1 1  ON 1
  uu_2                 1.032017e-01 1 1  ON 2
  uu_3                 2.991826e-02 1 1  ON 3
  uu_4                -1.753100e-02 1 1  ON 4
  uu_5                -4.933760e-02 1 1  ON 5
  uu_6                -7.252137e-02 1 1  ON 6
  uu_7                -8.563643e-02 1 1  ON 7
  uu_8                -7.873145e-02 1 1  ON 8
  uu_9                -8.436343e-02 1 1  ON 9
  ud_0                 4.711052e-01 1 1  ON 10
  ud_1                 1.589952e-01 1 1  ON 11
  ud_2                 6.819931e-03 1 1  ON 12
  ud_3                -6.402994e-02 1 1  ON 13
  ud_4                -1.076758e-01 1 1  ON 14
  ud_5                -1.404493e-01 1 1  ON 15
  ud_6                -1.583595e-01 1 1  ON 16
  ud_7                -1.635823e-01 1 1  ON 17
  ud_8                -1.438040e-01 1 1  ON 18
  ud_9                -1.448539e-01 1 1  ON 19
  eC_0                -7.390025e-01 1 1  ON 20
  eC_1                -6.123940e-01 1 1  ON 21
  eC_2                -3.191381e-01 1 1  ON 22
  eC_3                -1.327589e-01 1 1  ON 23
  eC_4                -1.952723e-02 1 1  ON 24
  eC_5                 5.544690e-02 1 1  ON 25
  eC_6                 9.982789e-02 1 1  ON 26
  eC_7                 1.685477e-01 1 1  ON 27
  eC_8                 3.186815e-01 1 1  ON 28
  eC_9                 4.208439e-01 1 1  ON 29
  eH_0                -3.544983e-01 1 1  ON 30
  eH_1                -3.118649e-01 1 1  ON 31
  eH_2                -2.592259e-01 1 1  ON 32
  eH_3                -2.072480e-01 1 1  ON 33
  eH_4                -1.300382e-01 1 1  ON 34
  eH_5                -6.105117e-02 1 1  ON 35
  eH_6                 1.174160e-02 1 1  ON 36
  eH_7                 7.339423e-02 1 1  ON 37
  eH_8                 1.323249e-01 1 1  ON 38
  eH_9                 1.283460e-01 1 1  ON 39
 uuC_0                -1.281501e-04 1 1  ON 40
 uuC_1                 1.090040e-03 1 1  ON 41
 uuC_2                 5.383721e-03 1 1  ON 42
 uuC_3                -4.486896e-03 1 1  ON 43
 uuC_4                -5.429812e-03 1 1  ON 44
 uuC_5                 2.003796e-04 1 1  ON 45
 uuC_6                -7.984221e-04 1 1  ON 46
 uuC_7                 7.252126e-03 1 1  ON 47
 uuC_8                 1.822090e-02 1 1  ON 48
 uuC_9                 1.319478e-03 1 1  ON 49
uuC_10                -4.804315e-03 1 1  ON 50
uuC_11                -1.296809e-02 1 1  ON 51
uuC_12                -9.331640e-03 1 1  ON 52
uuC_13                 3.962748e-03 1 1  ON 53
uuC_14                 7.807412e-03 1 1  ON 54
uuC_15                 2.870115e-04 1 1  ON 55
uuC_16                -3.819537e-03 1 1  ON 56
uuC_17                 5.393441e-03 1 1  ON 57
uuC_18                 1.729197e-02 1 1  ON 58
uuC_19                 2.948341e-03 1 1  ON 59
uuC_20                 2.907421e-04 1 1  ON 60
uuC_21                -7.684402e-03 1 1  ON 61
uuC_22                 9.540938e-04 1 1  ON 62
uuC_23                -4.219105e-05 1 1  ON 63
uuC_24                 2.751131e-03 1 1  ON 64
uuC_25                -7.234433e-04 1 1  ON 65
 udC_0                -8.104480e-03 1 1  ON 66
 udC_1                -2.213609e-03 1 1  ON 67
 udC_2                 1.600326e-02 1 1  ON 68
 udC_3                 6.210131e-03 1 1  ON 69
 udC_4                -1.747149e-03 1 1  ON 70
 udC_5                -2.642638e-04 1 1  ON 71
 udC_6                 8.840135e-03 1 1  ON 72
 udC_7                -5.637874e-03 1 1  ON 73
 udC_8                 1.422621e-02 1 1  ON 74
 udC_9                 1.601110e-03 1 1  ON 75
udC_10                 6.893023e-03 1 1  ON 76
udC_11                -9.496579e-03 1 1  ON 77
udC_12                -7.368258e-03 1 1  ON 78
udC_13                -6.694236e-03 1 1  ON 79
udC_14                 2.635197e-03 1 1  ON 80
udC_15                 9.074210e-04 1 1  ON 81
udC_16                 1.268493e-03 1 1  ON 82
udC_17                -8.412396e-03 1 1  ON 83
udC_18                 5.418131e-03 1 1  ON 84
udC_19                 6.677360e-03 1 1  ON 85
udC_20                -4.033240e-05 1 1  ON 86
udC_21                -4.990628e-04 1 1  ON 87
udC_22                -1.451013e-03 1 1  ON 88
udC_23                 1.526192e-03 1 1  ON 89
udC_24                -4.158270e-04 1 1  ON 90
udC_25                 4.146742e-04 1 1  ON 91
 uuH_0                -2.255316e-03 1 1  ON 92
 uuH_1                 2.108396e-03 1 1  ON 93
 uuH_2                -2.353274e-03 1 1  ON 94
 uuH_3                -5.520557e-03 1 1  ON 95
 uuH_4                -3.883619e-03 1 1  ON 96
 uuH_5                 5.820348e-04 1 1  ON 97
 uuH_6                 9.678362e-04 1 1  ON 98
 uuH_7                 1.863177e-02 1 1  ON 99
 uuH_8                -2.449342e-03 1 1  ON 100
 uuH_9                 1.852347e-04 1 1  ON 101
uuH_10                -8.880059e-03 1 1  ON 102
uuH_11                 1.902743e-03 1 1  ON 103
uuH_12                 7.231501e-04 1 1  ON 104
uuH_13                 1.719727e-04 1 1  ON 105
uuH_14                 2.397943e-03 1 1  ON 106
uuH_15                -8.307855e-04 1 1  ON 107
uuH_16                 4.917849e-03 1 1  ON 108
uuH_17                 5.716675e-03 1 1  ON 109
uuH_18                -2.324608e-03 1 1  ON 110
uuH_19                -1.779222e-03 1 1  ON 111
uuH_20                -3.158668e-03 1 1  ON 112
uuH_21                -2.070093e-03 1 1  ON 113
uuH_22                 1.413458e-03 1 1  ON 114
uuH_23                 2.533544e-03 1 1  ON 115
uuH_24                 8.556543e-04 1 1  ON 116
uuH_25                -7.376274e-04 1 1  ON 117
 udH_0                 8.303240e-04 1 1  ON 118
 udH_1                 9.503661e-04 1 1  ON 119
 udH_2                -9.552898e-04 1 1  ON 120
 udH_3                -3.944254e-03 1 1  ON 121
 udH_4                -5.093266e-03 1 1  ON 122
 udH_5                 1.123663e-04 1 1  ON 123
 udH_6                 7.793744e-04 1 1  ON 124
 udH_7                 4.249825e-03 1 1  ON 125
 udH_8                 6.550120e-03 1 1  ON 126
 udH_9                -9.286153e-04 1 1  ON 127
udH_10                -6.868906e-03 1 1  ON 128
udH_11                 5.705591e-04 1 1  ON 129
udH_12                -7.274989e-03 1 1  ON 130
udH_13                 6.038060e-03 1 1  ON 131
udH_14                 7.478454e-03 1 1  ON 132
udH_15                -2.164115e-04 1 1  ON 133
udH_16                 6.435782e-03 1 1  ON 134
udH_17                 1.235368e-02 1 1  ON 135
udH_18                -3.977519e-03 1 1  ON 136
udH_19                 6.125825e-03 1 1  ON 137
udH_20                -8.903385e-03 1 1  ON 138
udH_21                -2.093591e-03 1 1  ON 139
udH_22                -2.020362e-04 1 1  ON 140
udH_23                 7.248794e-03 1 1  ON 141
udH_24                -3.328996e-04 1 1  ON 142
udH_25                -5.911824e-05 1 1  ON 143
  </optVariables>
   Restore the number of walkers to 1, removing 0 walkers.
</opt>
</optimization-report>
  QMC Execution time = 7.029 secs
Loop execution max-interations = 10
BRANCH resetRun
 SimpleFixedNodeBranch::resetRun detected changes in <parameter>'s 
 BranchMode : 0000001100 0000001100
 iParam (old):                  2                 1                 3                 0                 0                 0                 1                 0
 iParam (new):                  5                 1                 3                 0                 0                 0                 1                 0
 vParam (old):                0.5               0.1                 1                 1                 1                 1                 1                 1                 1                 0                 0                 1                10                 1                 1                 1                 1
 vParam (new):                0.5               0.1                 1                 1                 1                 1                 1                 1                 1                 0                 0                 1                10                 1                 1                 1                 1

=========================================================
  Start QMCFixedSampleLinearOptimize
  File Root qmc.dump.s004 append = no 
=========================================================
  Skip QMCDriver::putQMCInfo 
  Resetting Properties of the walkers 1 x 14

=========================================================
  Start VMC
  File Root qmc.dump.s004 append = no 
=========================================================
Resetting walkers
  Using the current 1 walkers.
  Total number of walkers: 256
  Total weight: 256
  Resetting Properties of the walkers 1 x 14

<vmc function="put">
  qmc_counter=0  my_counter=0
  time step      = 0.5
  blocks         = 40
  steps          = 2
  substeps       = 5
  current        = 0
  target samples = 16000
  walkers/mpi    = 1

  stepsbetweensamples = 1
  SpinMoves      = no
<parameter name="blocks" condition="int">40</parameter>
<parameter name="blocks_between_recompute" condition="int">0</parameter>
<parameter name="check_properties" condition="int">100</parameter>
<parameter name="checkproperties" condition="int">100</parameter>
<parameter name="current" condition="int">0</parameter>
<parameter name="dmcwalkersperthread" condition="real">63</parameter>
<parameter name="maxcpusecs" condition="real">360000</parameter>
<parameter name="record_configs" condition="int">0</parameter>
<parameter name="record_walkers" condition="int">1</parameter>
<parameter name="recordconfigs" condition="int">0</parameter>
<parameter name="recordwalkers" condition="int">1</parameter>
<parameter name="rewind" condition="int">0</parameter>
<parameter name="samples" condition="real">16000</parameter>
<parameter name="samplesperthread" condition="real">63</parameter>
<parameter name="spinmass" condition="double">1</parameter>
<parameter name="spinmoves" condition="string">no</parameter>
<parameter name="steps" condition="int">2</parameter>
<parameter name="stepsbetweensamples" condition="int">1</parameter>
<parameter name="store_configs" condition="int">0</parameter>
<parameter name="storeconfigs" condition="int">0</parameter>
<parameter name="sub_steps" condition="int">5</parameter>
<parameter name="substeps" condition="int">5</parameter>
<parameter name="tau" condition="au">0.5</parameter>
<parameter name="time_step" condition="au">0.5</parameter>
<parameter name="timestep" condition="au">0.5</parameter>
<parameter name="use_drift" condition="string">no</parameter>
<parameter name="usedrift" condition="string">no</parameter>
<parameter name="walkers" condition="int">1</parameter>
<parameter name="warmup_steps" condition="int">5</parameter>
<parameter name="warmupsteps" condition="int">5</parameter>
  DumpConfig==false Nothing (configurations, state) will be saved.
  Walker Samples are dumped every 1 steps.
</vmc>
    Restarting, cummulative properties:
      energy     = -12.44967414
      variance   = 0
      r2accepted = 1e-10
      r2proposed = 1e-10
  Set drift_modifier UNR parameter a = 1
 Using QMCCostFunction::QMCCostFunction
 Using Default Cost Function: Cost = <|E-E_ff|^2>
  Set drift_modifier UNR parameter a = 1.0000000000e+00
  EstimatorManagerBase::add replace LocalEnergy estimator.
<optimization-report>
<vmc stage="main" blocks="40">
  Cannot make clones again. Use existing 1 clones
  Initial partition of walkers 0 1 

  Using Particle by Particle moves
  Walker moves without drift
  Total Sample Size   =16128
  Walker distribution on root = 0 1 
  Using Locality Approximation
===== Memory Usage after the buffer registration =====
Available memory on node 0, free + buffers : 91712 MB
Memory footprint by rank 0 on node 0       : 119 MB
==================================================
  Anonymous Buffer size per walker : 1756552 Bytes.
MEMORY increase 1 MB VMC::resetRun
====================================================
  SimpleFixedNodeBranch::finalize after a VMC block
    QMC counter        = 4
    time step          = 0.5
    reference energy   = -12.4436
    reference variance = 0.13566
====================================================
  Execution time = 9.6917e+00
</vmc>
<opt stage="setup">
  <log>
   Reading configurations from h5FileRoot qmc.dump.s004
  QMCCostFunction is created with 1 threads.
  Using Nonlocal PP in Opt: no
   Number of samples loaded to each thread : 63 
  VMC Eavg = -1.2450e+01
  VMC Evar = 1.7898e-01
  Total weights = 1.6128e+04
  Execution time = 3.8729e+00
  </log>
</opt>
<opt stage="main" walkers="16128">
  <log>

*****************************************
Building overlap and Hamiltonian matrices
*****************************************

Among totally 144 optimized parameters, largest LM parameter change : 3.0321e-02 at parameter 28

******************************************************************************
Init Cost =  -1.1188e+01    New Cost =  -1.1189e+01  Delta Cost =  -1.1696e-03
******************************************************************************

The new set of parameters is valid. Updating the trial wave function!

*****************************************************************************
Applying the update for shift_i =   1.0000e-02     and shift_s =   2.5000e-01
*****************************************************************************
  Execution time = 1.3666e+01
  </log>
  <optVariables href="qmc.dump.s004.opt.xml">
  uu_0                 3.923218e-01 1 1  ON 0
  uu_1                 2.232814e-01 1 1  ON 1
  uu_2                 1.130449e-01 1 1  ON 2
  uu_3                 4.369761e-02 1 1  ON 3
  uu_4                -4.095171e-03 1 1  ON 4
  uu_5                -3.461333e-02 1 1  ON 5
  uu_6                -5.545362e-02 1 1  ON 6
  uu_7                -6.975652e-02 1 1  ON 7
  uu_8                -7.721964e-02 1 1  ON 8
  uu_9                -8.952824e-02 1 1  ON 9
  ud_0                 4.764799e-01 1 1  ON 10
  ud_1                 1.653897e-01 1 1  ON 11
  ud_2                 1.293188e-02 1 1  ON 12
  ud_3                -5.543701e-02 1 1  ON 13
  ud_4                -9.694459e-02 1 1  ON 14
  ud_5                -1.271345e-01 1 1  ON 15
  ud_6                -1.453300e-01 1 1  ON 16
  ud_7                -1.534080e-01 1 1  ON 17
  ud_8                -1.442126e-01 1 1  ON 18
[...]
  QMC Execution time = 14.01 secs

=========================================================
  Start QMCFixedSampleLinearOptimize
  File Root qmc.dump.s013 append = no 
=========================================================
  Skip QMCDriver::putQMCInfo 
  Resetting Properties of the walkers 1 x 14

=========================================================
  Start VMC
  File Root qmc.dump.s013 append = no 
=========================================================
Using existing walkers 
  Resetting Properties of the walkers 1 x 14

<vmc function="put">
  qmc_counter=9  my_counter=0
  time step      = 0.5
  blocks         = 40
  steps          = 2
  substeps       = 5
  current        = 0
  target samples = 1.6e+04
  walkers/mpi    = 1

  stepsbetweensamples = 1
  SpinMoves      = no
<parameter name="blocks" condition="int">40</parameter>
<parameter name="blocks_between_recompute" condition="int">0</parameter>
<parameter name="check_properties" condition="int">100</parameter>
<parameter name="checkproperties" condition="int">100</parameter>
<parameter name="current" condition="int">0</parameter>
<parameter name="dmcwalkersperthread" condition="real">63</parameter>
<parameter name="maxcpusecs" condition="real">3.6e+05</parameter>
<parameter name="record_configs" condition="int">0</parameter>
<parameter name="record_walkers" condition="int">1</parameter>
<parameter name="recordconfigs" condition="int">0</parameter>
<parameter name="recordwalkers" condition="int">1</parameter>
<parameter name="rewind" condition="int">0</parameter>
<parameter name="samples" condition="real">1.6e+04</parameter>
<parameter name="samplesperthread" condition="real">63</parameter>
<parameter name="spinmass" condition="double">1</parameter>
<parameter name="spinmoves" condition="string">no</parameter>
<parameter name="steps" condition="int">2</parameter>
<parameter name="stepsbetweensamples" condition="int">1</parameter>
<parameter name="store_configs" condition="int">0</parameter>
<parameter name="storeconfigs" condition="int">0</parameter>
<parameter name="sub_steps" condition="int">5</parameter>
<parameter name="substeps" condition="int">5</parameter>
<parameter name="tau" condition="au">0.5</parameter>
<parameter name="time_step" condition="au">0.5</parameter>
<parameter name="timestep" condition="au">0.5</parameter>
<parameter name="use_drift" condition="string">no</parameter>
<parameter name="usedrift" condition="string">no</parameter>
<parameter name="walkers" condition="int">1</parameter>
<parameter name="warmup_steps" condition="int">5</parameter>
<parameter name="warmupsteps" condition="int">5</parameter>
  DumpConfig==false Nothing (configurations, state) will be saved.
  Walker Samples are dumped every 1 steps.
</vmc>
    Restarting, cummulative properties:
      energy     = -12.45
      variance   = 0
      r2accepted = 1e-10
      r2proposed = 1e-10
  Set drift_modifier UNR parameter a = 1
 Using QMCCostFunction::QMCCostFunction
 Using Default Cost Function: Cost = <|E-E_ff|^2>
  Set drift_modifier UNR parameter a = 1.0000e+00
  EstimatorManagerBase::add replace LocalEnergy estimator.
<optimization-report>
<vmc stage="main" blocks="40">
  Cannot make clones again. Use existing 1 clones
  Initial partition of walkers 0 1 

  Using Particle by Particle moves
  Walker moves without drift
  Total Sample Size   =16128
  Walker distribution on root = 0 1 
  Using Locality Approximation
===== Memory Usage after the buffer registration =====
Available memory on node 0, free + buffers : 91712 MB
Memory footprint by rank 0 on node 0       : 119 MB
==================================================
  Anonymous Buffer size per walker : 1756552 Bytes.
MEMORY increase 1 MB VMC::resetRun
====================================================
  SimpleFixedNodeBranch::finalize after a VMC block
    QMC counter        = 13
    time step          = 0.5
    reference energy   = -12.4413
    reference variance = 0.124789
====================================================
  Execution time = 9.6607e+00
</vmc>
<opt stage="setup">
  <log>
   Reading configurations from h5FileRoot qmc.dump.s013
  QMCCostFunction is created with 1 threads.
  Using Nonlocal PP in Opt: no
   Number of samples loaded to each thread : 63 
  VMC Eavg = -1.2446e+01
  VMC Evar = 1.6616e-01
  Total weights = 1.6128e+04
  Execution time = 3.8959e+00
  </log>
</opt>
<opt stage="main" walkers="16128">
  <log>

*****************************************
Building overlap and Hamiltonian matrices
*****************************************

Among totally 144 optimized parameters, largest LM parameter change : 2.5279e-02 at parameter 11

******************************************************************************
Init Cost =  -1.1184e+01    New Cost =  -1.1185e+01  Delta Cost =  -6.5100e-04
******************************************************************************

The new set of parameters is valid. Updating the trial wave function!

*****************************************************************************
Applying the update for shift_i =   1.0000e-02     and shift_s =   3.9062e-03
*****************************************************************************
  Execution time = 1.3659e+01
  </log>
  <optVariables href="qmc.dump.s013.opt.xml">
  uu_0                 4.137756e-01 1 1  ON 0
  uu_1                 2.482497e-01 1 1  ON 1
  uu_2                 1.381183e-01 1 1  ON 2
  uu_3                 6.613708e-02 1 1  ON 3
  uu_4                 1.780324e-02 1 1  ON 4
  uu_5                -1.763493e-02 1 1  ON 5
  uu_6                -4.211747e-02 1 1  ON 6
  uu_7                -6.338073e-02 1 1  ON 7
  uu_8                -7.675457e-02 1 1  ON 8
  uu_9                -8.319579e-02 1 1  ON 9
  ud_0                 4.883901e-01 1 1  ON 10
  ud_1                 1.772816e-01 1 1  ON 11
  ud_2                 2.516805e-02 1 1  ON 12
  ud_3                -4.490497e-02 1 1  ON 13
  ud_4                -8.864436e-02 1 1  ON 14
  ud_5                -1.209594e-01 1 1  ON 15
  ud_6                -1.407498e-01 1 1  ON 16
  ud_7                -1.558338e-01 1 1  ON 17
  ud_8                -1.455514e-01 1 1  ON 18
  ud_9                -1.403565e-01 1 1  ON 19
  eC_0                -8.172254e-01 1 1  ON 20
  eC_1                -6.735711e-01 1 1  ON 21
  eC_2                -3.827616e-01 1 1  ON 22
  eC_3                -1.980690e-01 1 1  ON 23
  eC_4                -7.235430e-02 1 1  ON 24
  eC_5                 2.944559e-03 1 1  ON 25
  eC_6                 6.124340e-02 1 1  ON 26
  eC_7                 8.048650e-02 1 1  ON 27
  eC_8                 2.471888e-01 1 1  ON 28
  eC_9                 4.415539e-01 1 1  ON 29
  eH_0                -3.995506e-01 1 1  ON 30
  eH_1                -3.529564e-01 1 1  ON 31
  eH_2                -3.014281e-01 1 1  ON 32
  eH_3                -2.502528e-01 1 1  ON 33
  eH_4                -1.701441e-01 1 1  ON 34
  eH_5                -1.033866e-01 1 1  ON 35
  eH_6                -2.974711e-02 1 1  ON 36
  eH_7                 4.591384e-02 1 1  ON 37
  eH_8                 1.062260e-01 1 1  ON 38
  eH_9                 1.488367e-01 1 1  ON 39
 uuC_0                -2.877964e-03 1 1  ON 40
 uuC_1                 1.659649e-03 1 1  ON 41
 uuC_2                 1.093476e-02 1 1  ON 42
 uuC_3                -2.865510e-03 1 1  ON 43
 uuC_4                -4.375990e-03 1 1  ON 44
 uuC_5                 2.793471e-04 1 1  ON 45
 uuC_6                 2.017065e-03 1 1  ON 46
 uuC_7                 1.101770e-02 1 1  ON 47
 uuC_8                 1.975061e-02 1 1  ON 48
 uuC_9                 1.159287e-03 1 1  ON 49
uuC_10                -1.377175e-03 1 1  ON 50
uuC_11                -1.870775e-02 1 1  ON 51
uuC_12                -7.576984e-03 1 1  ON 52
uuC_13                -1.457758e-03 1 1  ON 53
uuC_14                 6.266531e-03 1 1  ON 54
uuC_15                 2.169055e-04 1 1  ON 55
uuC_16                -4.198110e-03 1 1  ON 56
uuC_17                -3.172654e-03 1 1  ON 57
uuC_18                 1.867422e-02 1 1  ON 58
uuC_19                 2.054872e-03 1 1  ON 59
uuC_20                 5.111990e-03 1 1  ON 60
uuC_21                -6.448688e-03 1 1  ON 61
uuC_22                 7.127666e-04 1 1  ON 62
uuC_23                -2.521129e-03 1 1  ON 63
uuC_24                 2.548426e-03 1 1  ON 64
uuC_25                -5.999251e-04 1 1  ON 65
 udC_0                -4.293868e-03 1 1  ON 66
 udC_1                 2.782115e-03 1 1  ON 67
 udC_2                 1.436532e-02 1 1  ON 68
 udC_3                 1.607033e-03 1 1  ON 69
 udC_4                -2.742509e-03 1 1  ON 70
 udC_5                -6.077949e-04 1 1  ON 71
 udC_6                 1.379443e-02 1 1  ON 72
 udC_7                -2.219431e-03 1 1  ON 73
 udC_8                 1.711384e-02 1 1  ON 74
 udC_9                -5.382090e-03 1 1  ON 75
udC_10                 2.521321e-03 1 1  ON 76
udC_11                -1.490648e-02 1 1  ON 77
udC_12                -6.213480e-03 1 1  ON 78
udC_13                -6.305325e-04 1 1  ON 79
udC_14                 3.576097e-03 1 1  ON 80
udC_15                 4.205422e-04 1 1  ON 81
udC_16                 1.246290e-02 1 1  ON 82
udC_17                -8.051963e-03 1 1  ON 83
udC_18                 1.768825e-02 1 1  ON 84
udC_19                 1.244331e-03 1 1  ON 85
udC_20                -5.377766e-03 1 1  ON 86
udC_21                -3.654186e-03 1 1  ON 87
udC_22                 3.904916e-04 1 1  ON 88
udC_23                 3.260644e-03 1 1  ON 89
udC_24                 5.735346e-04 1 1  ON 90
udC_25                -2.727401e-04 1 1  ON 91
 uuH_0                 3.192571e-03 1 1  ON 92
 uuH_1                -3.225767e-04 1 1  ON 93
 uuH_2                -8.458757e-03 1 1  ON 94
 uuH_3                -1.845541e-03 1 1  ON 95
 uuH_4                -1.662816e-04 1 1  ON 96
 uuH_5                 9.285076e-04 1 1  ON 97
 uuH_6                -3.538182e-03 1 1  ON 98
 uuH_7                 1.359026e-02 1 1  ON 99
 uuH_8                -1.279637e-03 1 1  ON 100
 uuH_9                -3.357934e-03 1 1  ON 101
uuH_10                -3.809650e-03 1 1  ON 102
uuH_11                -2.836764e-03 1 1  ON 103
uuH_12                -6.698659e-05 1 1  ON 104
uuH_13                 2.821550e-03 1 1  ON 105
uuH_14                 7.374550e-03 1 1  ON 106
uuH_15                -1.644445e-03 1 1  ON 107
uuH_16                 6.211260e-03 1 1  ON 108
uuH_17                 1.482853e-02 1 1  ON 109
uuH_18                -2.123612e-03 1 1  ON 110
uuH_19                -2.449196e-03 1 1  ON 111
uuH_20                -4.262373e-03 1 1  ON 112
uuH_21                -4.059543e-03 1 1  ON 113
uuH_22                 2.743710e-03 1 1  ON 114
uuH_23                 2.719719e-03 1 1  ON 115
uuH_24                 1.163408e-03 1 1  ON 116
uuH_25                -1.329782e-03 1 1  ON 117
 udH_0                 2.444237e-03 1 1  ON 118
 udH_1                 1.240601e-03 1 1  ON 119
 udH_2                -4.412704e-03 1 1  ON 120
 udH_3                -4.577291e-03 1 1  ON 121
 udH_4                -4.762184e-03 1 1  ON 122
 udH_5                 2.126683e-04 1 1  ON 123
 udH_6                 7.504353e-04 1 1  ON 124
 udH_7                 1.733919e-03 1 1  ON 125
 udH_8                 6.492728e-03 1 1  ON 126
 udH_9                -2.354473e-03 1 1  ON 127
udH_10                -8.372922e-03 1 1  ON 128
udH_11                 5.777877e-03 1 1  ON 129
udH_12                -9.687519e-03 1 1  ON 130
udH_13                 8.789071e-03 1 1  ON 131
udH_14                 1.032847e-02 1 1  ON 132
udH_15                -2.395260e-04 1 1  ON 133
udH_16                 6.827909e-03 1 1  ON 134
udH_17                 2.420628e-02 1 1  ON 135
udH_18                -1.941951e-02 1 1  ON 136
udH_19                 1.304507e-02 1 1  ON 137
udH_20                -1.040303e-02 1 1  ON 138
udH_21                 3.380307e-04 1 1  ON 139
udH_22                -2.191896e-03 1 1  ON 140
udH_23                 7.727614e-03 1 1  ON 141
udH_24                -1.190886e-03 1 1  ON 142
udH_25                 7.556537e-04 1 1  ON 143
  </optVariables>
   Restore the number of walkers to 1, removing 0 walkers.
</opt>
</optimization-report>
  QMC Execution time = 13.68 secs
BRANCH resetRun
 SimpleFixedNodeBranch::resetRun detected changes in <parameter>'s 
 BranchMode : 0000001100 0000001100
 iParam (old):                  5                 1                13                 0                 0                 0                 1                 0
 iParam (new):                100                 1                13                 0                 0                 0                 1                 0
 vParam (old):                0.5               0.1                 1                 1                 1                 1                 1                 1                 1                 0                 0                 1                10                 1                 1                 1                 1
 vParam (new):                0.1               0.1                 1                 1                 1                 1                 1                 1                 1                 0                 0                 1                10                 1                 1                 1                 1

=========================================================
  Start VMC
  File Root qmc.dump.s014 append = no 
=========================================================
Resetting walkers
  Using the current 1 walkers.
  Total number of walkers: 256
  Total weight: 256
  Resetting Properties of the walkers 1 x 14

<vmc function="put">
  qmc_counter=0  my_counter=0
  time step      = 0.1
  blocks         = 200
  steps          = 1
  substeps       = 30
  current        = 0
  target samples = 256
  walkers/mpi    = 1

  stepsbetweensamples = 200
  SpinMoves      = no
<parameter name="blocks" condition="int">200</parameter>
<parameter name="blocks_between_recompute" condition="int">0</parameter>
<parameter name="check_properties" condition="int">100</parameter>
<parameter name="checkproperties" condition="int">100</parameter>
<parameter name="current" condition="int">0</parameter>
<parameter name="dmcwalkersperthread" condition="real">1</parameter>
<parameter name="maxcpusecs" condition="real">360000</parameter>
<parameter name="record_configs" condition="int">0</parameter>
<parameter name="record_walkers" condition="int">200</parameter>
<parameter name="recordconfigs" condition="int">0</parameter>
<parameter name="recordwalkers" condition="int">200</parameter>
<parameter name="rewind" condition="int">0</parameter>
<parameter name="samples" condition="real">256</parameter>
<parameter name="samplesperthread" condition="real">1</parameter>
<parameter name="spinmass" condition="double">1</parameter>
<parameter name="spinmoves" condition="string">no</parameter>
<parameter name="steps" condition="int">1</parameter>
<parameter name="stepsbetweensamples" condition="int">200</parameter>
<parameter name="store_configs" condition="int">0</parameter>
<parameter name="storeconfigs" condition="int">0</parameter>
<parameter name="sub_steps" condition="int">30</parameter>
<parameter name="substeps" condition="int">30</parameter>
<parameter name="tau" condition="au">0.1</parameter>
<parameter name="time_step" condition="au">0.1</parameter>
<parameter name="timestep" condition="au">0.1</parameter>
<parameter name="use_drift" condition="string">no</parameter>
<parameter name="usedrift" condition="string">no</parameter>
<parameter name="walkers" condition="int">1</parameter>
<parameter name="warmup_steps" condition="int">100</parameter>
<parameter name="warmupsteps" condition="int">100</parameter>
  DumpConfig==false Nothing (configurations, state) will be saved.
  Walker Samples are dumped every 200 steps.
</vmc>
  Set drift_modifier UNR parameter a = 1
  EstimatorManagerBase::add replace LocalEnergy estimator.
  Cannot make clones again. Use existing 1 clones
  Initial partition of walkers 0 1 

  Using Particle by Particle moves
  Walker moves without drift
  Total Sample Size   =256
  Walker distribution on root = 0 1 
  Using Locality Approximation
===== Memory Usage after the buffer registration =====
Available memory on node 0, free + buffers : 91713 MB
Memory footprint by rank 0 on node 0       : 119 MB
==================================================
  Anonymous Buffer size per walker : 1756552 Bytes.
MEMORY increase 1 MB VMC::resetRun
====================================================
  SimpleFixedNodeBranch::finalize after a VMC block
    QMC counter        = 14
    time step          = 0.1
    reference energy   = -12.4014
    reference variance = 0.226535
====================================================
  QMC Execution time = 85 secs
BRANCH resetRun
 SimpleFixedNodeBranch::resetRun detected changes in <parameter>'s 
 BranchMode : 0000001100 0000001100
 iParam (old):                100                 1                14               256                 0                 0                 1                 0
 iParam (new):                100                 1                14             16000                 0                 0                 1                 0
 vParam (old):                0.1               0.1      -12.40139181      -12.40139181                 1                 1                 1                 1      0.2265351109      -12.40139181                 1                 1                10                 1                 1                 1                 1
 vParam (new):              0.001               0.1      -12.40139181      -12.40139181                 1                 1                 1                 1      0.2265351109      -12.40139181                 1                 1                10                 1                 1                 1                 1

=========================================================
  Start DMC
  File Root qmc.dump.s015 append = no 
=========================================================
Using existing walkers 
  Resetting Properties of the walkers 1 x 14
  Set drift_modifier UNR parameter a = 1
  EstimatorManagerBase::add replace LocalEnergy estimator.
  Cannot make clones again. Use existing 1 clones
  Total number of walkers: 256
  Total weight: 256
  Creating WalkerController: target  number of walkers = 16000
  Using WalkerControlMPI for dynamic population control.
  START ALL OVER 
  WalkerControlBase parameters 
    maxCopy = 2
    Max Walkers per MPI rank 125
    Min Walkers per MPI rank 13
    Using non-blocking send/recv
  QMC counter      = 15
  time step        = 0.001
  effective time step = 0.001
  trial energy     = -12.40139181
  reference energy = -12.40139181
  Feedback = 1
  reference variance = 0.2265351109
  target walkers = 16000
  branching cutoff scheme classic
  branch cutoff = 50 75
  Max and minimum walkers per node= 125 13
  QMC Status (BranchMode) = 0000001101
  Total number of walkers: 16128
  Total weight: 16128
  Initial partition of walkers on a node: 0 63 
  Updates by particle-by-particle moves
  DMC moves are rejected when a node crossing is detected
  Using Non-local T-moves v0, M. Casula, PRB 74, 161102(R) (2006)
===== Memory Usage after the buffer registration =====
Available memory on node 0, free + buffers : 91309 MB
Memory footprint by rank 0 on node 0       : 219 MB
==================================================
SimpleFixedNodeBranch::checkParameters 
  Average Energy of a population  = -12.4014
  Energy Variance = 0.226494

  Fluctuating population
  Persistent walkers are killed after 1 MC sweeps
  BranchInterval = 1
  Steps per block = 20
  Number of blocks = 1000

  DMC Engine Initialization = 7.541081905 secs

 Warmup is completed after 100

  TauEff     = 0.0009997616265
 TauEff/Tau = 0.9997616265
  Etrial     = -12.38221658
 Running average of energy = -12.42939059
                  Variance = 0.2277507432
branch cutoff = 10 15
